
     Program PWSCF v.7.5 starts on 29May2026 at  4:24:20 

     This program is part of the open-source Quantum ESPRESSO suite
     for quantum simulation of materials; please cite
         "P. Giannozzi et al., J. Phys.:Condens. Matter 21 395502 (2009);
         "P. Giannozzi et al., J. Phys.:Condens. Matter 29 465901 (2017);
         "P. Giannozzi et al., J. Chem. Phys. 152 154105 (2020);
          URL http://www.quantum-espresso.org", 
     in publications or presentations arising from this work. More details at
     http://www.quantum-espresso.org/quote

     Parallel version (MPI & OpenMP), running on       8 processor cores
     Number of MPI processes:                 1
     Threads/MPI process:                     8

     MPI processes distributed on     1 nodes
     253841 MiB available memory on the printing compute node when the environment starts
 
     Reading input from espresso.pwi
Warning: card &CELL ignored
Warning: card &FCP ignored
Warning: card &RISM ignored

     Current dimensions of program PWSCF are:
     Max number of different atomic species (ntypx) = 10
     Max number of k-points (npk) =  40000
     Max angular momentum in pseudopotentials (lmaxx) =  4
 
     Subspace diagonalization in iterative solution of the eigenvalue problem:
     a serial algorithm will be used

 
     G-vector sticks info
     --------------------
     sticks:   dense  smooth     PW     G-vecs:    dense   smooth      PW
     Sum        6591    6591   1755               553421   553421   76211
 
     Using Slab Decomposition
 


     bravais-lattice index     =            0
     lattice parameter (alat)  =      16.7921  a.u.
     unit-cell volume          =    8814.7061 (a.u.)^3
     number of atoms/cell      =           96
     number of atomic types    =            3
     number of electrons       =       881.00
     number of Kohn-Sham states=          529
     kinetic-energy cutoff     =      60.0000  Ry
     charge density cutoff     =     240.0000  Ry
     scf convergence threshold =      1.0E-07
     mixing beta               =       0.2000
     number of iterations used =           12  local-TF  mixing
     Exchange-correlation= PBE
                           (   1   4   3   4   0   0   0)

     GPU acceleration is ACTIVE.  1 visible GPUs per MPI rank


     GPU used by master process:

        Device Number: 0
        Device name: NVIDIA A100-SXM4-40GB
        Compute capability : 80
        Ratio of single to double precision performance  : 2
        Memory Clock Rate (KHz): 1215000
        Memory Bus Width (bits): 5120
        Peak Memory Bandwidth (GB/s): ******

     celldm(1)=  16.792106  celldm(2)=   0.000000  celldm(3)=   0.000000
     celldm(4)=   0.000000  celldm(5)=   0.000000  celldm(6)=   0.000000

     crystal axes: (cart. coord. in units of alat)
               a(1) = (   1.000000   0.000000   0.000000 )  
               a(2) = (   0.000000   1.221022   0.000000 )  
               a(3) = (   0.000000   0.000000   1.524646 )  

     reciprocal axes: (cart. coord. in units 2 pi/alat)
               b(1) = (  1.000000  0.000000  0.000000 )  
               b(2) = (  0.000000  0.818986  0.000000 )  
               b(3) = (  0.000000  0.000000  0.655890 )  


     PseudoPot. # 1 for Fe read from file:
     /opt/pp/oncv_pbe/Fe.upf
     MD5 check sum: a5f07f5dca5be6cacb81ceb54992e4ae
     Pseudo is Norm-conserving + core correction, Zval = 16.0
     Generated using ONCVPSP code by D. R. Hamann
     Using radial grid of 1426 points,  6 beta functions with: 
                l(1) =   0
                l(2) =   0
                l(3) =   1
                l(4) =   1
                l(5) =   2
                l(6) =   2

     PseudoPot. # 2 for S  read from file:
     /opt/pp/oncv_pbe/S.upf
     MD5 check sum: 6027e7704d67ae28863b2247926ce6f3
     Pseudo is Norm-conserving + core correction, Zval =  6.0
     Generated using ONCVPSP code by D. R. Hamann
     Using radial grid of 1146 points,  6 beta functions with: 
                l(1) =   0
                l(2) =   0
                l(3) =   1
                l(4) =   1
                l(5) =   2
                l(6) =   2

     PseudoPot. # 3 for H  read from file:
     /opt/pp/oncv_pbe/H.upf
     MD5 check sum: e96aa7e3e4a958db16958554ea960e2a
     Pseudo is Norm-conserving, Zval =  1.0
     Generated using ONCVPSP code by D. R. Hamann
     Using radial grid of 1166 points,  3 beta functions with: 
                l(1) =   0
                l(2) =   0
                l(3) =   1

     atomic species   valence    mass     pseudopotential
     Fe               16.00    55.84500     Fe( 1.00)
     S                 6.00    32.06000     S ( 1.00)
     H                 1.00     1.00800     H ( 1.00)

     Starting magnetic structure 
     atomic species   magnetization
     Fe              0.065
     S               0.000
     H               0.000

     No symmetry found


                                    s                        frac. trans.

      isym =  1     identity                                     

 cryst.   s( 1) = (     1          0          0      )
                  (     0          1          0      )
                  (     0          0          1      )

 cart.    s( 1) = (  1.0000000  0.0000000  0.0000000 )
                  (  0.0000000  1.0000000  0.0000000 )
                  (  0.0000000  0.0000000  1.0000000 )


   Cartesian axes

     site n.     atom                  positions (alat units)
         1        Fe     tau(   1) = (   0.0002515   0.0005155  -0.0002007  )
         2        Fe     tau(   2) = (   0.2509913   0.3058902   0.1900793  )
         3        S      tau(   3) = (   0.1048826   0.2292486  -0.0002877  )
         4        S      tau(   4) = (   0.3967240   0.3820375  -0.0002278  )
         5        S      tau(   5) = (   0.1470717   0.5340749   0.1902315  )
         6        S      tau(   6) = (   0.3544244   0.0771205   0.1899908  )
         7        Fe     tau(   7) = (   0.0003937   0.0004613   0.3806985  )
         8        Fe     tau(   8) = (   0.2489280   0.3045473   0.5699778  )
         9        S      tau(   9) = (   0.1037265   0.2287082   0.3790474  )
        10        S      tau(  10) = (   0.3968823   0.3811939   0.3814537  )
        11        S      tau(  11) = (   0.1467121   0.5373059   0.5696337  )
        12        S      tau(  12) = (   0.3536746   0.0757866   0.5705311  )
        13        Fe     tau(  13) = (  -0.0002838   0.0002229   0.7621674  )
        14        Fe     tau(  14) = (   0.2492239   0.3054525   0.9539339  )
        15        S      tau(  15) = (   0.1009279   0.2281805   0.7621008  )
        16        S      tau(  16) = (   0.3867517   0.3673631   0.7610997  )
        17        S      tau(  17) = (   0.1468328   0.5378182   0.9546621  )
        18        S      tau(  18) = (   0.3538441   0.0763327   0.9535690  )
        19        Fe     tau(  19) = (   0.0004751   0.0008312   1.1435048  )
        20        Fe     tau(  20) = (   0.2509920   0.3060895   1.3339469  )
        21        S      tau(  21) = (   0.1039665   0.2290563   1.1448309  )
        22        S      tau(  22) = (   0.3969416   0.3816553   1.1426378  )
        23        S      tau(  23) = (   0.1470194   0.5342398   1.3340252  )
        24        S      tau(  24) = (   0.3544602   0.0773429   1.3342466  )
        25        Fe     tau(  25) = (   0.0002999   0.6111877  -0.0001459  )
        26        Fe     tau(  26) = (   0.2503675   0.9164730   0.1903885  )
        27        S      tau(  27) = (   0.1041118   0.8398653  -0.0000848  )
        28        S      tau(  28) = (   0.3963703   0.9930097  -0.0000701  )
        29        S      tau(  29) = (   0.1464845   1.1450932   0.1897934  )
        30        S      tau(  30) = (   0.3538140   0.6878756   0.1900285  )
        31        Fe     tau(  31) = (   0.0003993   0.6112856   0.3784297  )
        32        Fe     tau(  32) = (   0.2483337   0.9168435   0.5699968  )
        33        S      tau(  33) = (   0.1022505   0.8410284   0.3796978  )
        34        S      tau(  34) = (   0.3956331   0.9932081   0.3804387  )
        35        S      tau(  35) = (   0.1460476   1.1448004   0.5716424  )
        36        S      tau(  36) = (   0.3455299   0.6896669   0.5654368  )
        37        Fe     tau(  37) = (   0.0004409   0.6113623   0.7621584  )
        38        Fe     tau(  38) = (   0.2482546   0.9171950   0.9546591  )
        39        S      tau(  39) = (   0.1026712   0.8407792   0.7622911  )
        40        S      tau(  40) = (   0.3999743   0.9915061   0.7623020  )
        41        S      tau(  41) = (   0.1460747   1.1451696   0.9526950  )
        42        S      tau(  42) = (   0.3454155   0.6902382   0.9591147  )
        43        Fe     tau(  43) = (   0.0003397   0.6115740   1.1459023  )
        44        Fe     tau(  44) = (   0.2503535   0.9166626   1.3341254  )
        45        S      tau(  45) = (   0.1021335   0.8413545   1.1448428  )
        46        S      tau(  46) = (   0.3956127   0.9935776   1.1440817  )
        47        S      tau(  47) = (   0.1465067   1.1453067   1.3344899  )
        48        S      tau(  48) = (   0.3537872   0.6880705   1.3344348  )
        49        Fe     tau(  49) = (   0.5004494   0.0005352  -0.0001895  )
        50        Fe     tau(  50) = (   0.7503618   0.3056194   0.1904382  )
        51        S      tau(  51) = (   0.6045501   0.2292621  -0.0002603  )
        52        S      tau(  52) = (   0.8964874   0.3821686  -0.0002203  )
        53        S      tau(  53) = (   0.6468713   0.5341479   0.1899750  )
        54        S      tau(  54) = (   0.8543116   0.0768355   0.1898796  )
        55        Fe     tau(  55) = (   0.5002786   0.0004369   0.3805621  )
        56        Fe     tau(  56) = (   0.7528257   0.3053137   0.5698675  )
        57        S      tau(  57) = (   0.6048550   0.2285571   0.3804884  )
        58        S      tau(  58) = (   0.8990357   0.3815506   0.3788499  )
        59        S      tau(  59) = (   0.6566165   0.5330499   0.5642488  )
        60        S      tau(  60) = (   0.8548446   0.0762878   0.5707773  )
        61        Fe     tau(  61) = (   0.5011585   0.0031926   0.7621137  )
        62        Fe     tau(  62) = (   0.7526821   0.3056005   0.9541558  )
        63        S      tau(  63) = (   0.6096061   0.2290866   0.7618374  )
        64        S      tau(  64) = (   0.8983731   0.3825774   0.7620639  )
        65        S      tau(  65) = (   0.6563674   0.5333253   0.9597464  )
        66        S      tau(  66) = (   0.8547968   0.0765433   0.9533934  )
        67        Fe     tau(  67) = (   0.5003039   0.0007816   1.1436925  )
        68        Fe     tau(  68) = (   0.7504042   0.3057997   1.3336648  )
        69        S      tau(  69) = (   0.6048747   0.2288786   1.1436124  )
        70        S      tau(  70) = (   0.8989962   0.3818772   1.1451588  )
        71        S      tau(  71) = (   0.6468651   0.5343306   1.3343168  )
        72        S      tau(  72) = (   0.8543836   0.0770545   1.3343390  )
        73        Fe     tau(  73) = (   0.5005408   0.6111659  -0.0001465  )
        74        Fe     tau(  74) = (   0.7496720   0.9161762   0.1909605  )
        75        S      tau(  75) = (   0.6041952   0.8402081  -0.0000978  )
        76        S      tau(  76) = (   0.8958334   0.9928966  -0.0001029  )
        77        S      tau(  77) = (   0.6463521   1.1449127   0.1903015  )
        78        S      tau(  78) = (   0.8536105   0.6881929   0.1905070  )
        79        Fe     tau(  79) = (   0.5003157   0.6108920   0.3857484  )
        80        Fe     tau(  80) = (   0.7493134   0.9174905   0.5710474  )
        81        S      tau(  81) = (   0.6027901   0.8408033   0.3821082  )
        82        S      tau(  82) = (   0.8970375   0.9935585   0.3803004  )
        83        S      tau(  83) = (   0.6467292   1.1460048   0.5707557  )
        84        S      tau(  84) = (   0.8530194   0.6856695   0.5703316  )
        85        Fe     tau(  85) = (   0.7493061   0.9177190   0.9534403  )
        86        S      tau(  86) = (   0.6044609   0.8460856   0.7623347  )
        87        S      tau(  87) = (   0.8962724   0.9926090   0.7622214  )
        88        S      tau(  88) = (   0.6467489   1.1462574   0.9535609  )
        89        S      tau(  89) = (   0.8529139   0.6857785   0.9540589  )
        90        Fe     tau(  90) = (   0.5002564   0.6112386   1.1385200  )
        91        Fe     tau(  91) = (   0.7496441   0.9163568   1.3335029  )
        92        S      tau(  92) = (   0.6027410   0.8411232   1.1423280  )
        93        S      tau(  93) = (   0.8970281   0.9938626   1.1441680  )
        94        S      tau(  94) = (   0.6463566   1.1451097   1.3339838  )
        95        S      tau(  95) = (   0.8535562   0.6883570   1.3338993  )
        96        H      tau(  96) = (   0.4329079   0.5167307   0.7548485  )

   Crystallographic axes

     site n.     atom                  positions (cryst. coord.)
         1        Fe     tau(   1) = (  0.0002515  0.0004222 -0.0001316  )
         2        Fe     tau(   2) = (  0.2509913  0.2505199  0.1246712  )
         3        S      tau(   3) = (  0.1048826  0.1877514 -0.0001887  )
         4        S      tau(   4) = (  0.3967240  0.3128834 -0.0001494  )
         5        S      tau(   5) = (  0.1470717  0.4373999  0.1247710  )
         6        S      tau(   6) = (  0.3544244  0.0631606  0.1246131  )
         7        Fe     tau(   7) = (  0.0003937  0.0003778  0.2496964  )
         8        Fe     tau(   8) = (  0.2489280  0.2494200  0.3738428  )
         9        S      tau(   9) = (  0.1037265  0.1873089  0.2486135  )
        10        S      tau(  10) = (  0.3968823  0.3121925  0.2501918  )
        11        S      tau(  11) = (  0.1467121  0.4400461  0.3736172  )
        12        S      tau(  12) = (  0.3536746  0.0620682  0.3742057  )
        13        Fe     tau(  13) = ( -0.0002838  0.0001826  0.4998981  )
        14        Fe     tau(  14) = (  0.2492239  0.2501614  0.6256758  )
        15        S      tau(  15) = (  0.1009279  0.1868766  0.4998544  )
        16        S      tau(  16) = (  0.3867517  0.3008653  0.4991978  )
        17        S      tau(  17) = (  0.1468328  0.4404657  0.6261535  )
        18        S      tau(  18) = (  0.3538441  0.0625154  0.6254365  )
        19        Fe     tau(  19) = (  0.0004751  0.0006807  0.7500136  )
        20        Fe     tau(  20) = (  0.2509920  0.2506831  0.8749226  )
        21        S      tau(  21) = (  0.1039665  0.1875940  0.7508834  )
        22        S      tau(  22) = (  0.3969416  0.3125704  0.7494449  )
        23        S      tau(  23) = (  0.1470194  0.4375350  0.8749740  )
        24        S      tau(  24) = (  0.3544602  0.0633428  0.8751192  )
        25        Fe     tau(  25) = (  0.0002999  0.5005543 -0.0000957  )
        26        Fe     tau(  26) = (  0.2503675  0.7505787  0.1248739  )
        27        S      tau(  27) = (  0.1041118  0.6878381 -0.0000556  )
        28        S      tau(  28) = (  0.3963703  0.8132612 -0.0000460  )
        29        S      tau(  29) = (  0.1464845  0.9378155  0.1244836  )
        30        S      tau(  30) = (  0.3538140  0.5633606  0.1246378  )
        31        Fe     tau(  31) = (  0.0003993  0.5006345  0.2482083  )
        32        Fe     tau(  32) = (  0.2483337  0.7508822  0.3738553  )
        33        S      tau(  33) = (  0.1022505  0.6887907  0.2490401  )
        34        S      tau(  34) = (  0.3956331  0.8134237  0.2495260  )
        35        S      tau(  35) = (  0.1460476  0.9375757  0.3749346  )
        36        S      tau(  36) = (  0.3455299  0.5648277  0.3708644  )
        37        Fe     tau(  37) = (  0.0004409  0.5006973  0.4998922  )
        38        Fe     tau(  38) = (  0.2482546  0.7511700  0.6261516  )
        39        S      tau(  39) = (  0.1026712  0.6885865  0.4999792  )
        40        S      tau(  40) = (  0.3999743  0.8120298  0.4999864  )
        41        S      tau(  41) = (  0.1460747  0.9378780  0.6248633  )
        42        S      tau(  42) = (  0.3454155  0.5652955  0.6290739  )
        43        Fe     tau(  43) = (  0.0003397  0.5008706  0.7515861  )
        44        Fe     tau(  44) = (  0.2503535  0.7507340  0.8750397  )
        45        S      tau(  45) = (  0.1021335  0.6890577  0.7508911  )
        46        S      tau(  46) = (  0.3956127  0.8137263  0.7503919  )
        47        S      tau(  47) = (  0.1465067  0.9379903  0.8752788  )
        48        S      tau(  48) = (  0.3537872  0.5635202  0.8752426  )
        49        Fe     tau(  49) = (  0.5004494  0.0004383 -0.0001243  )
        50        Fe     tau(  50) = (  0.7503618  0.2502981  0.1249066  )
        51        S      tau(  51) = (  0.6045501  0.1877625 -0.0001708  )
        52        S      tau(  52) = (  0.8964874  0.3129908 -0.0001445  )
        53        S      tau(  53) = (  0.6468713  0.4374597  0.1246028  )
        54        S      tau(  54) = (  0.8543116  0.0629272  0.1245401  )
        55        Fe     tau(  55) = (  0.5002786  0.0003578  0.2496069  )
        56        Fe     tau(  56) = (  0.7528257  0.2500477  0.3737705  )
        57        S      tau(  57) = (  0.6048550  0.1871851  0.2495586  )
        58        S      tau(  58) = (  0.8990357  0.3124847  0.2484839  )
        59        S      tau(  59) = (  0.6566165  0.4365605  0.3700852  )
        60        S      tau(  60) = (  0.8548446  0.0624786  0.3743672  )
        61        Fe     tau(  61) = (  0.5011585  0.0026147  0.4998629  )
        62        Fe     tau(  62) = (  0.7526821  0.2502826  0.6258214  )
        63        S      tau(  63) = (  0.6096061  0.1876188  0.4996817  )
        64        S      tau(  64) = (  0.8983731  0.3133256  0.4998302  )
        65        S      tau(  65) = (  0.6563674  0.4367861  0.6294882  )
        66        S      tau(  66) = (  0.8547968  0.0626879  0.6253213  )
        67        Fe     tau(  67) = (  0.5003039  0.0006401  0.7501367  )
        68        Fe     tau(  68) = (  0.7504042  0.2504458  0.8747376  )
        69        S      tau(  69) = (  0.6048747  0.1874484  0.7500841  )
        70        S      tau(  70) = (  0.8989962  0.3127522  0.7510984  )
        71        S      tau(  71) = (  0.6468651  0.4376094  0.8751653  )
        72        S      tau(  72) = (  0.8543836  0.0631065  0.8751798  )
        73        Fe     tau(  73) = (  0.5005408  0.5005364 -0.0000961  )
        74        Fe     tau(  74) = (  0.7496720  0.7503357  0.1252491  )
        75        S      tau(  75) = (  0.6041952  0.6881188 -0.0000642  )
        76        S      tau(  76) = (  0.8958334  0.8131686 -0.0000675  )
        77        S      tau(  77) = (  0.6463521  0.9376677  0.1248169  )
        78        S      tau(  78) = (  0.8536105  0.5636205  0.1249516  )
        79        Fe     tau(  79) = (  0.5003157  0.5003121  0.2530086  )
        80        Fe     tau(  80) = (  0.7493134  0.7514120  0.3745444  )
        81        S      tau(  81) = (  0.6027901  0.6886063  0.2506210  )
        82        S      tau(  82) = (  0.8970375  0.8137107  0.2494353  )
        83        S      tau(  83) = (  0.6467292  0.9385621  0.3743531  )
        84        S      tau(  84) = (  0.8530194  0.5615538  0.3740749  )
        85        Fe     tau(  85) = (  0.7493061  0.7515992  0.6253521  )
        86        S      tau(  86) = (  0.6044609  0.6929324  0.5000078  )
        87        S      tau(  87) = (  0.8962724  0.8129331  0.4999335  )
        88        S      tau(  88) = (  0.6467489  0.9387689  0.6254312  )
        89        S      tau(  89) = (  0.8529139  0.5616431  0.6257579  )
        90        Fe     tau(  90) = (  0.5002564  0.5005960  0.7467441  )
        91        Fe     tau(  91) = (  0.7496441  0.7504835  0.8746315  )
        92        S      tau(  92) = (  0.6027410  0.6888683  0.7492417  )
        93        S      tau(  93) = (  0.8970281  0.8139597  0.7504486  )
        94        S      tau(  94) = (  0.6463566  0.9378290  0.8749469  )
        95        S      tau(  95) = (  0.8535562  0.5637549  0.8748914  )
        96        H      tau(  96) = (  0.4329079  0.4231953  0.4950977  )

     number of k points=     8  Marzari-Vanderbilt smearing, width (Ry)=  0.0150
                       cart. coord. in units 2pi/alat
        k(    1) = (   0.0000000   0.0000000   0.0000000), wk =   0.0833333
        k(    2) = (   0.0000000   0.0000000   0.2186301), wk =   0.1666667
        k(    3) = (   0.0000000  -0.4094931   0.0000000), wk =   0.0833333
        k(    4) = (   0.0000000  -0.4094931   0.2186301), wk =   0.1666667
        k(    5) = (  -0.5000000   0.0000000   0.0000000), wk =   0.0833333
        k(    6) = (  -0.5000000   0.0000000   0.2186301), wk =   0.1666667
        k(    7) = (  -0.5000000  -0.4094931   0.0000000), wk =   0.0833333
        k(    8) = (  -0.5000000  -0.4094931   0.2186301), wk =   0.1666667

                       cryst. coord.
        k(    1) = (   0.0000000   0.0000000   0.0000000), wk =   0.0833333
        k(    2) = (   0.0000000   0.0000000   0.3333333), wk =   0.1666667
        k(    3) = (   0.0000000  -0.5000000   0.0000000), wk =   0.0833333
        k(    4) = (   0.0000000  -0.5000000   0.3333333), wk =   0.1666667
        k(    5) = (  -0.5000000   0.0000000   0.0000000), wk =   0.0833333
        k(    6) = (  -0.5000000   0.0000000   0.3333333), wk =   0.1666667
        k(    7) = (  -0.5000000  -0.5000000   0.0000000), wk =   0.0833333
        k(    8) = (  -0.5000000  -0.5000000   0.3333333), wk =   0.1666667

     Dense  grid:   553421 G-vectors     FFT dimensions: (  90, 108, 128)

     Dynamical RAM for                 wfc:     558.42 MB

     Dynamical RAM for     wfc (w. buffer):     558.42 MB

     Dynamical RAM for           str. fact:      25.33 MB

     Dynamical RAM for           local pot:       0.00 MB

     Dynamical RAM for          nlocal pot:    1810.39 MB

     Dynamical RAM for                qrad:       3.73 MB

     Dynamical RAM for          rho,v,vnew:     107.62 MB

     Dynamical RAM for               rhoin:      35.87 MB

     Dynamical RAM for           G-vectors:      35.89 MB

     Dynamical RAM for          h,s,v(r/c):      51.24 MB

     Dynamical RAM for          <psi|beta>:      13.84 MB

     Dynamical RAM for                 psi:    1116.84 MB

     Dynamical RAM for                hpsi:    1116.84 MB

     Dynamical RAM for      wfcinit/wfcrot:    1123.25 MB

     Estimated static dynamical RAM per process >       2.61 GB

     Estimated max dynamical RAM per process >       4.85 GB
     Generating pointlists ...
     new r_m :   0.1006 (alat units)  1.6892 (a.u.) for type    1
     new r_m :   0.0645 (alat units)  1.0838 (a.u.) for type    2
     new r_m :   0.0645 (alat units)  1.0838 (a.u.) for type    3

     Initial potential from superposition of free atoms

     starting charge     880.9860, renormalised to     881.0000
     Starting wfcs are  567 randomized atomic wfcs

     total cpu time spent up to now is       12.4 secs

     per-process dynamical memory:  1150.2 Mb

     Self-consistent Calculation
[tb_dev] Currently allocated     3.10E+01 Mbytes, locked:    0 /   3
[tb_pin] Currently allocated     0.00E+00 Mbytes, locked:    0 /   0

     iteration #  1     ecut=    60.00 Ry     beta= 0.20
     Davidson diagonalization with overlap

---- Real-time Memory Report at c_bands before calling an iterative solver
          3224 MiB given to the printing process from OS
          1157 MiB allocation reported by mallinfo(arena+hblkhd)
        250798 MiB available memory on the node where the printing process lives
     GPU memory used/free/total (MiB): 5716 / 34725 / 40442
------------------
     ethr =  1.00E-02,  avg # of iterations =  2.0

     total cpu time spent up to now is       35.8 secs

     total energy              =   -9183.18534075 Ry
     estimated scf accuracy    <      16.53092506 Ry

     total magnetization       =     1.92 Bohr mag/cell
     absolute magnetization    =    13.27 Bohr mag/cell
[tb_dev] Currently allocated     0.00E+00 Mbytes, locked:    0 /   0
[tb_pin] Currently allocated     0.00E+00 Mbytes, locked:    0 /   0

     iteration #  2     ecut=    60.00 Ry     beta= 0.20
     Davidson diagonalization with overlap

---- Real-time Memory Report at c_bands before calling an iterative solver
          3258 MiB given to the printing process from OS
          1157 MiB allocation reported by mallinfo(arena+hblkhd)
        249890 MiB available memory on the node where the printing process lives
     GPU memory used/free/total (MiB): 8500 / 31941 / 40442
------------------
     ethr =  1.88E-03,  avg # of iterations =  2.0

     total cpu time spent up to now is       57.0 secs

     total energy              =   -9183.33510933 Ry
     estimated scf accuracy    <       5.82087499 Ry

     total magnetization       =     1.29 Bohr mag/cell
     absolute magnetization    =    12.50 Bohr mag/cell
[tb_dev] Currently allocated     0.00E+00 Mbytes, locked:    0 /   0
[tb_pin] Currently allocated     0.00E+00 Mbytes, locked:    0 /   0

     iteration #  3     ecut=    60.00 Ry     beta= 0.20
     Davidson diagonalization with overlap

---- Real-time Memory Report at c_bands before calling an iterative solver
          3293 MiB given to the printing process from OS
          1157 MiB allocation reported by mallinfo(arena+hblkhd)
        245940 MiB available memory on the node where the printing process lives
     GPU memory used/free/total (MiB): 8506 / 31935 / 40442
------------------
     ethr =  6.61E-04,  avg # of iterations =  2.0

     total cpu time spent up to now is       78.0 secs

     total energy              =   -9183.33935379 Ry
     estimated scf accuracy    <       1.63774735 Ry

     total magnetization       =     1.34 Bohr mag/cell
     absolute magnetization    =    10.37 Bohr mag/cell
[tb_dev] Currently allocated     0.00E+00 Mbytes, locked:    0 /   0
[tb_pin] Currently allocated     0.00E+00 Mbytes, locked:    0 /   0

     iteration #  4     ecut=    60.00 Ry     beta= 0.20
     Davidson diagonalization with overlap

---- Real-time Memory Report at c_bands before calling an iterative solver
          3326 MiB given to the printing process from OS
          1157 MiB allocation reported by mallinfo(arena+hblkhd)
        245810 MiB available memory on the node where the printing process lives
     GPU memory used/free/total (MiB): 8506 / 31935 / 40442
------------------
     ethr =  1.86E-04,  avg # of iterations =  4.6
     Minimization algorithm failed to find Fermi energy: reverting to bisection
     Possible cause: smearing is larger than the electronic band-gap.

     total cpu time spent up to now is      100.2 secs

     total energy              =   -9183.47119192 Ry
     estimated scf accuracy    <       0.17753772 Ry

     total magnetization       =     1.88 Bohr mag/cell
     absolute magnetization    =     6.20 Bohr mag/cell
[tb_dev] Currently allocated     0.00E+00 Mbytes, locked:    0 /   0
[tb_pin] Currently allocated     0.00E+00 Mbytes, locked:    0 /   0

     iteration #  5     ecut=    60.00 Ry     beta= 0.20
     Davidson diagonalization with overlap

---- Real-time Memory Report at c_bands before calling an iterative solver
          3379 MiB given to the printing process from OS
          1243 MiB allocation reported by mallinfo(arena+hblkhd)
        245664 MiB available memory on the node where the printing process lives
     GPU memory used/free/total (MiB): 8506 / 31935 / 40442
------------------
     c_bands:  1 eigenvalues not converged
     ethr =  2.02E-05,  avg # of iterations =  9.4

     total cpu time spent up to now is      129.1 secs

     total energy              =   -9183.50852104 Ry
     estimated scf accuracy    <       0.03268726 Ry

     total magnetization       =     1.60 Bohr mag/cell
     absolute magnetization    =     4.54 Bohr mag/cell
[tb_dev] Currently allocated     0.00E+00 Mbytes, locked:    0 /   0
[tb_pin] Currently allocated     0.00E+00 Mbytes, locked:    0 /   0

     iteration #  6     ecut=    60.00 Ry     beta= 0.20
     Davidson diagonalization with overlap

---- Real-time Memory Report at c_bands before calling an iterative solver
          3415 MiB given to the printing process from OS
          1243 MiB allocation reported by mallinfo(arena+hblkhd)
        244558 MiB available memory on the node where the printing process lives
     GPU memory used/free/total (MiB): 8508 / 31933 / 40442
------------------
     ethr =  3.71E-06,  avg # of iterations =  3.7

     total cpu time spent up to now is      150.6 secs

     total energy              =   -9183.51068100 Ry
     estimated scf accuracy    <       0.01886981 Ry

     total magnetization       =     1.60 Bohr mag/cell
     absolute magnetization    =     3.94 Bohr mag/cell
[tb_dev] Currently allocated     0.00E+00 Mbytes, locked:    0 /   0
[tb_pin] Currently allocated     0.00E+00 Mbytes, locked:    0 /   0

     iteration #  7     ecut=    60.00 Ry     beta= 0.20
     Davidson diagonalization with overlap

---- Real-time Memory Report at c_bands before calling an iterative solver
          3450 MiB given to the printing process from OS
          1243 MiB allocation reported by mallinfo(arena+hblkhd)
        243411 MiB available memory on the node where the printing process lives
     GPU memory used/free/total (MiB): 8508 / 31933 / 40442
------------------
     ethr =  2.14E-06,  avg # of iterations =  4.4

     total cpu time spent up to now is      171.7 secs

     total energy              =   -9183.51225555 Ry
     estimated scf accuracy    <       0.00357721 Ry

     total magnetization       =     1.59 Bohr mag/cell
     absolute magnetization    =     3.15 Bohr mag/cell
[tb_dev] Currently allocated     0.00E+00 Mbytes, locked:    0 /   0
[tb_pin] Currently allocated     0.00E+00 Mbytes, locked:    0 /   0

     iteration #  8     ecut=    60.00 Ry     beta= 0.20
     Davidson diagonalization with overlap

---- Real-time Memory Report at c_bands before calling an iterative solver
          3483 MiB given to the printing process from OS
          1243 MiB allocation reported by mallinfo(arena+hblkhd)
        248202 MiB available memory on the node where the printing process lives
     GPU memory used/free/total (MiB): 8508 / 31933 / 40442
------------------
     ethr =  4.06E-07,  avg # of iterations =  4.0

     total cpu time spent up to now is      195.0 secs

     total energy              =   -9183.51303235 Ry
     estimated scf accuracy    <       0.00060083 Ry

     total magnetization       =     1.56 Bohr mag/cell
     absolute magnetization    =     2.57 Bohr mag/cell
[tb_dev] Currently allocated     0.00E+00 Mbytes, locked:    0 /   0
[tb_pin] Currently allocated     0.00E+00 Mbytes, locked:    0 /   0

     iteration #  9     ecut=    60.00 Ry     beta= 0.20
     Davidson diagonalization with overlap

---- Real-time Memory Report at c_bands before calling an iterative solver
          3517 MiB given to the printing process from OS
          1243 MiB allocation reported by mallinfo(arena+hblkhd)
        248227 MiB available memory on the node where the printing process lives
     GPU memory used/free/total (MiB): 8508 / 31933 / 40442
------------------
     ethr =  6.82E-08,  avg # of iterations =  4.7

     total cpu time spent up to now is      217.0 secs

     total energy              =   -9183.51317895 Ry
     estimated scf accuracy    <       0.00044961 Ry

     total magnetization       =     1.54 Bohr mag/cell
     absolute magnetization    =     2.45 Bohr mag/cell
[tb_dev] Currently allocated     0.00E+00 Mbytes, locked:    0 /   0
[tb_pin] Currently allocated     0.00E+00 Mbytes, locked:    0 /   0

     iteration # 10     ecut=    60.00 Ry     beta= 0.20
     Davidson diagonalization with overlap

---- Real-time Memory Report at c_bands before calling an iterative solver
          3551 MiB given to the printing process from OS
          1243 MiB allocation reported by mallinfo(arena+hblkhd)
        246283 MiB available memory on the node where the printing process lives
     GPU memory used/free/total (MiB): 8508 / 31933 / 40442
------------------
     ethr =  5.10E-08,  avg # of iterations =  2.6

     total cpu time spent up to now is      238.3 secs

     total energy              =   -9183.51326816 Ry
     estimated scf accuracy    <       0.00020584 Ry

     total magnetization       =     1.46 Bohr mag/cell
     absolute magnetization    =     2.22 Bohr mag/cell
[tb_dev] Currently allocated     0.00E+00 Mbytes, locked:    0 /   0
[tb_pin] Currently allocated     0.00E+00 Mbytes, locked:    0 /   0

     iteration # 11     ecut=    60.00 Ry     beta= 0.20
     Davidson diagonalization with overlap

---- Real-time Memory Report at c_bands before calling an iterative solver
          3585 MiB given to the printing process from OS
          1243 MiB allocation reported by mallinfo(arena+hblkhd)
        246088 MiB available memory on the node where the printing process lives
     GPU memory used/free/total (MiB): 8508 / 31933 / 40442
------------------
     ethr =  2.34E-08,  avg # of iterations =  3.3

     total cpu time spent up to now is      260.5 secs

     total energy              =   -9183.51332067 Ry
     estimated scf accuracy    <       0.00005716 Ry

     total magnetization       =     1.42 Bohr mag/cell
     absolute magnetization    =     2.10 Bohr mag/cell
[tb_dev] Currently allocated     0.00E+00 Mbytes, locked:    0 /   0
[tb_pin] Currently allocated     0.00E+00 Mbytes, locked:    0 /   0

     iteration # 12     ecut=    60.00 Ry     beta= 0.20
     Davidson diagonalization with overlap

---- Real-time Memory Report at c_bands before calling an iterative solver
          3619 MiB given to the printing process from OS
          1243 MiB allocation reported by mallinfo(arena+hblkhd)
        242794 MiB available memory on the node where the printing process lives
     GPU memory used/free/total (MiB): 8526 / 31915 / 40442
------------------
     ethr =  6.49E-09,  avg # of iterations =  3.5

     total cpu time spent up to now is      282.4 secs

     total energy              =   -9183.51333317 Ry
     estimated scf accuracy    <       0.00004664 Ry

     total magnetization       =     1.39 Bohr mag/cell
     absolute magnetization    =     2.05 Bohr mag/cell
[tb_dev] Currently allocated     0.00E+00 Mbytes, locked:    0 /   0
[tb_pin] Currently allocated     0.00E+00 Mbytes, locked:    0 /   0

     iteration # 13     ecut=    60.00 Ry     beta= 0.20
     Davidson diagonalization with overlap

---- Real-time Memory Report at c_bands before calling an iterative solver
          3652 MiB given to the printing process from OS
          1243 MiB allocation reported by mallinfo(arena+hblkhd)
        239748 MiB available memory on the node where the printing process lives
     GPU memory used/free/total (MiB): 8526 / 31915 / 40442
------------------
     ethr =  5.29E-09,  avg # of iterations =  3.1

     total cpu time spent up to now is      304.4 secs

     total energy              =   -9183.51334697 Ry
     estimated scf accuracy    <       0.00001147 Ry

     total magnetization       =     1.35 Bohr mag/cell
     absolute magnetization    =     2.00 Bohr mag/cell
[tb_dev] Currently allocated     0.00E+00 Mbytes, locked:    0 /   0
[tb_pin] Currently allocated     0.00E+00 Mbytes, locked:    0 /   0

     iteration # 14     ecut=    60.00 Ry     beta= 0.20
     Davidson diagonalization with overlap

---- Real-time Memory Report at c_bands before calling an iterative solver
          3686 MiB given to the printing process from OS
          1243 MiB allocation reported by mallinfo(arena+hblkhd)
        240581 MiB available memory on the node where the printing process lives
     GPU memory used/free/total (MiB): 8526 / 31915 / 40442
------------------
     ethr =  1.30E-09,  avg # of iterations =  4.8

     total cpu time spent up to now is      328.4 secs

     total energy              =   -9183.51335427 Ry
     estimated scf accuracy    <       0.00000408 Ry

     total magnetization       =     1.32 Bohr mag/cell
     absolute magnetization    =     1.97 Bohr mag/cell
[tb_dev] Currently allocated     0.00E+00 Mbytes, locked:    0 /   0
[tb_pin] Currently allocated     0.00E+00 Mbytes, locked:    0 /   0

     iteration # 15     ecut=    60.00 Ry     beta= 0.20
     Davidson diagonalization with overlap

---- Real-time Memory Report at c_bands before calling an iterative solver
          3687 MiB given to the printing process from OS
          1243 MiB allocation reported by mallinfo(arena+hblkhd)
        240568 MiB available memory on the node where the printing process lives
     GPU memory used/free/total (MiB): 8526 / 31915 / 40442
------------------
     ethr =  4.64E-10,  avg # of iterations =  2.0

     total cpu time spent up to now is      349.0 secs

     total energy              =   -9183.51335554 Ry
     estimated scf accuracy    <       0.00000322 Ry

     total magnetization       =     1.32 Bohr mag/cell
     absolute magnetization    =     1.96 Bohr mag/cell
[tb_dev] Currently allocated     0.00E+00 Mbytes, locked:    0 /   0
[tb_pin] Currently allocated     0.00E+00 Mbytes, locked:    0 /   0

     iteration # 16     ecut=    60.00 Ry     beta= 0.20
     Davidson diagonalization with overlap

---- Real-time Memory Report at c_bands before calling an iterative solver
          3687 MiB given to the printing process from OS
          1243 MiB allocation reported by mallinfo(arena+hblkhd)
        240725 MiB available memory on the node where the printing process lives
     GPU memory used/free/total (MiB): 8526 / 31915 / 40442
------------------
     ethr =  3.66E-10,  avg # of iterations =  4.7

     total cpu time spent up to now is      373.5 secs

     total energy              =   -9183.51335902 Ry
     estimated scf accuracy    <       0.00000114 Ry

     total magnetization       =     1.29 Bohr mag/cell
     absolute magnetization    =     1.93 Bohr mag/cell
[tb_dev] Currently allocated     0.00E+00 Mbytes, locked:    0 /   0
[tb_pin] Currently allocated     0.00E+00 Mbytes, locked:    0 /   0

     iteration # 17     ecut=    60.00 Ry     beta= 0.20
     Davidson diagonalization with overlap

---- Real-time Memory Report at c_bands before calling an iterative solver
          3687 MiB given to the printing process from OS
          1243 MiB allocation reported by mallinfo(arena+hblkhd)
        244136 MiB available memory on the node where the printing process lives
     GPU memory used/free/total (MiB): 8526 / 31915 / 40442
------------------
     ethr =  1.29E-10,  avg # of iterations =  4.3

     total cpu time spent up to now is      396.5 secs

     total energy              =   -9183.51335984 Ry
     estimated scf accuracy    <       0.00000052 Ry

     total magnetization       =     1.28 Bohr mag/cell
     absolute magnetization    =     1.92 Bohr mag/cell
[tb_dev] Currently allocated     0.00E+00 Mbytes, locked:    0 /   0
[tb_pin] Currently allocated     0.00E+00 Mbytes, locked:    0 /   0

     iteration # 18     ecut=    60.00 Ry     beta= 0.20
     Davidson diagonalization with overlap

---- Real-time Memory Report at c_bands before calling an iterative solver
          3687 MiB given to the printing process from OS
          1243 MiB allocation reported by mallinfo(arena+hblkhd)
        241298 MiB available memory on the node where the printing process lives
     GPU memory used/free/total (MiB): 8526 / 31915 / 40442
------------------
     ethr =  5.86E-11,  avg # of iterations =  5.2

     total cpu time spent up to now is      421.2 secs

     total energy              =   -9183.51336042 Ry
     estimated scf accuracy    <       0.00000024 Ry

     total magnetization       =     1.28 Bohr mag/cell
     absolute magnetization    =     1.91 Bohr mag/cell
[tb_dev] Currently allocated     0.00E+00 Mbytes, locked:    0 /   0
[tb_pin] Currently allocated     0.00E+00 Mbytes, locked:    0 /   0

     iteration # 19     ecut=    60.00 Ry     beta= 0.20
     Davidson diagonalization with overlap

---- Real-time Memory Report at c_bands before calling an iterative solver
          3687 MiB given to the printing process from OS
          1243 MiB allocation reported by mallinfo(arena+hblkhd)
        240166 MiB available memory on the node where the printing process lives
     GPU memory used/free/total (MiB): 8526 / 31915 / 40442
------------------
     ethr =  2.76E-11,  avg # of iterations =  4.3
     Minimization algorithm failed to find Fermi energy: reverting to bisection
     Possible cause: smearing is larger than the electronic band-gap.
 
     Magnetic moment per site  (integrated on atomic sphere of radius R)
     atom   1 (R=0.101)  charge= 13.8122  magn= -0.0011
     atom   2 (R=0.101)  charge= 13.8134  magn= -0.0030
     atom   3 (R=0.065)  charge=  0.9950  magn= -0.0000
     atom   4 (R=0.065)  charge=  0.9961  magn=  0.0002
     atom   5 (R=0.065)  charge=  0.9959  magn= -0.0000
     atom   6 (R=0.065)  charge=  0.9955  magn= -0.0000
     atom   7 (R=0.101)  charge= 13.8147  magn=  0.0037
     atom   8 (R=0.101)  charge= 13.8189  magn=  0.0118
     atom   9 (R=0.065)  charge=  0.9963  magn= -0.0003
     atom  10 (R=0.065)  charge=  0.9957  magn= -0.0014
     atom  11 (R=0.065)  charge=  0.9944  magn= -0.0004
     atom  12 (R=0.065)  charge=  0.9958  magn= -0.0002
     atom  13 (R=0.101)  charge= 13.8170  magn=  0.0076
     atom  14 (R=0.101)  charge= 13.8165  magn=  0.0106
     atom  15 (R=0.065)  charge=  0.9959  magn= -0.0003
     atom  16 (R=0.065)  charge=  1.0059  magn=  0.0018
     atom  17 (R=0.065)  charge=  0.9946  magn= -0.0003
     atom  18 (R=0.065)  charge=  0.9956  magn= -0.0002
     atom  19 (R=0.101)  charge= 13.8147  magn=  0.0037
     atom  20 (R=0.101)  charge= 13.8130  magn= -0.0033
     atom  21 (R=0.065)  charge=  0.9963  magn= -0.0003
     atom  22 (R=0.065)  charge=  0.9957  magn= -0.0015
     atom  23 (R=0.065)  charge=  0.9960  magn= -0.0001
     atom  24 (R=0.065)  charge=  0.9956  magn= -0.0000
     atom  25 (R=0.101)  charge= 13.8082  magn=  0.0185
     atom  26 (R=0.101)  charge= 13.8127  magn= -0.0023
     atom  27 (R=0.065)  charge=  0.9956  magn= -0.0001
     atom  28 (R=0.065)  charge=  0.9958  magn=  0.0002
     atom  29 (R=0.065)  charge=  0.9956  magn=  0.0001
     atom  30 (R=0.065)  charge=  0.9949  magn= -0.0008
     atom  31 (R=0.101)  charge= 13.8162  magn=  0.0373
     atom  32 (R=0.101)  charge= 13.8107  magn=  0.0379
     atom  33 (R=0.065)  charge=  0.9960  magn=  0.0001
     atom  34 (R=0.065)  charge=  0.9951  magn= -0.0008
     atom  35 (R=0.065)  charge=  0.9961  magn=  0.0000
     atom  36 (R=0.065)  charge=  0.9994  magn=  0.0091
     atom  37 (R=0.101)  charge= 13.8091  magn=  0.0003
     atom  38 (R=0.101)  charge= 13.8110  magn=  0.0409
     atom  39 (R=0.065)  charge=  0.9952  magn= -0.0001
     atom  40 (R=0.065)  charge=  0.9929  magn=  0.0000
     atom  41 (R=0.065)  charge=  0.9962  magn=  0.0000
     atom  42 (R=0.065)  charge=  0.9993  magn=  0.0096
     atom  43 (R=0.101)  charge= 13.8163  magn=  0.0378
     atom  44 (R=0.101)  charge= 13.8126  magn= -0.0029
     atom  45 (R=0.065)  charge=  0.9959  magn=  0.0001
     atom  46 (R=0.065)  charge=  0.9950  magn= -0.0009
     atom  47 (R=0.065)  charge=  0.9958  magn=  0.0001
     atom  48 (R=0.065)  charge=  0.9950  magn= -0.0008
     atom  49 (R=0.101)  charge= 13.8121  magn=  0.0072
     atom  50 (R=0.101)  charge= 13.8122  magn= -0.0044
     atom  51 (R=0.065)  charge=  0.9953  magn=  0.0001
     atom  52 (R=0.065)  charge=  0.9959  magn= -0.0001
     atom  53 (R=0.065)  charge=  0.9952  magn= -0.0008
     atom  54 (R=0.065)  charge=  0.9954  magn=  0.0001
     atom  55 (R=0.101)  charge= 13.8133  magn= -0.0083
     atom  56 (R=0.101)  charge= 13.8127  magn=  0.0399
     atom  57 (R=0.065)  charge=  0.9948  magn= -0.0009
     atom  58 (R=0.065)  charge=  0.9952  magn=  0.0001
     atom  59 (R=0.065)  charge=  0.9999  magn=  0.0103
     atom  60 (R=0.065)  charge=  0.9958  magn= -0.0000
     atom  61 (R=0.101)  charge= 13.8039  magn=  0.0111
     atom  62 (R=0.101)  charge= 13.8122  magn=  0.0387
     atom  63 (R=0.065)  charge=  0.9945  magn=  0.0000
     atom  64 (R=0.065)  charge=  0.9958  magn=  0.0000
     atom  65 (R=0.065)  charge=  0.9996  magn=  0.0104
     atom  66 (R=0.065)  charge=  0.9959  magn= -0.0000
     atom  67 (R=0.101)  charge= 13.8133  magn= -0.0083
     atom  68 (R=0.101)  charge= 13.8120  magn= -0.0045
     atom  69 (R=0.065)  charge=  0.9948  magn= -0.0009
     atom  70 (R=0.065)  charge=  0.9953  magn=  0.0001
     atom  71 (R=0.065)  charge=  0.9954  magn= -0.0008
     atom  72 (R=0.065)  charge=  0.9955  magn=  0.0001
     atom  73 (R=0.101)  charge= 13.8079  magn= -0.0470
     atom  74 (R=0.101)  charge= 13.8098  magn= -0.0048
     atom  75 (R=0.065)  charge=  0.9956  magn=  0.0002
     atom  76 (R=0.065)  charge=  0.9948  magn=  0.0000
     atom  77 (R=0.065)  charge=  0.9958  magn= -0.0000
     atom  78 (R=0.065)  charge=  0.9956  magn= -0.0000
     atom  79 (R=0.101)  charge= 13.7824  magn=  0.3806
     atom  80 (R=0.101)  charge= 13.8053  magn=  0.0335
     atom  81 (R=0.065)  charge=  0.9960  magn= -0.0016
     atom  82 (R=0.065)  charge=  0.9961  magn= -0.0000
     atom  83 (R=0.065)  charge=  0.9959  magn= -0.0002
     atom  84 (R=0.065)  charge=  0.9946  magn= -0.0008
     atom  85 (R=0.101)  charge= 13.8053  magn=  0.0331
     atom  86 (R=0.065)  charge=  0.9970  magn=  0.0080
     atom  87 (R=0.065)  charge=  0.9957  magn= -0.0005
     atom  88 (R=0.065)  charge=  0.9958  magn= -0.0002
     atom  89 (R=0.065)  charge=  0.9946  magn= -0.0009
     atom  90 (R=0.101)  charge= 13.7820  magn=  0.3893
     atom  91 (R=0.101)  charge= 13.8098  magn= -0.0047
     atom  92 (R=0.065)  charge=  0.9961  magn= -0.0016
     atom  93 (R=0.065)  charge=  0.9960  magn= -0.0000
     atom  94 (R=0.065)  charge=  0.9959  magn= -0.0000
     atom  95 (R=0.065)  charge=  0.9954  magn= -0.0000
     atom  96 (R=0.065)  charge=  0.6475  magn=  0.0008

     total cpu time spent up to now is      444.7 secs

     End of self-consistent calculation

 ------ SPIN UP ------------


          k = 0.0000 0.0000 0.0000 ( 69157 PWs)   bands (ev):

   -75.3482 -75.3405 -74.9494 -74.9479 -74.9331 -74.9319 -74.8964 -74.8959
   -74.8826 -74.8808 -74.8803 -74.8763 -74.8596 -74.8547 -74.8545 -74.8509
   -74.8504 -74.8485 -74.8483 -74.8466 -74.8463 -74.8452 -74.8445 -74.8443
   -74.8416 -74.8413 -74.8409 -74.8365 -74.8353 -74.8343 -74.8341 -41.4077
   -41.3981 -41.3849 -41.3737 -41.1624 -41.1596 -41.0110 -41.0088 -40.9885
   -40.9856 -40.9706 -40.9680 -40.9511 -40.9486 -40.9466 -40.9322 -40.9316
   -40.9309 -40.9304 -40.9295 -40.9289 -40.9263 -40.9252 -40.9250 -40.9238
   -40.9237 -40.9203 -40.9195 -40.9190 -40.9180 -40.9166 -40.9147 -40.9097
   -40.9094 -40.9082 -40.9073 -40.9014 -40.8721 -40.8680 -40.8556 -40.8516
   -40.8422 -40.8413 -40.8237 -40.8205 -40.8164 -40.8089 -40.8018 -40.8005
   -40.7996 -40.7977 -40.7960 -40.7903 -40.7899 -40.7886 -40.7873 -40.7839
   -40.7835 -40.7826 -40.7820 -40.7818 -40.7807 -40.7806 -40.7782 -40.7772
   -40.7767 -40.7735 -40.7733 -40.7706 -40.7700 -40.7694 -40.7659 -40.7647
   -40.7605 -40.7559 -40.7534 -40.7499 -40.7496 -40.7476 -40.7425 -40.7417
   -40.7417 -40.7365 -40.7364 -40.7353 -40.7325 -40.7318 -40.7302 -40.7290
   -40.7278 -40.7258 -40.7243 -40.7180  -4.3788  -3.8590  -3.8507  -3.4989
    -3.4467  -3.1278  -3.0604  -3.0504  -3.0293  -2.9764  -2.9188  -2.7161
    -2.6620  -2.6571  -2.6504  -2.6215  -2.6014  -2.5561  -2.5371  -2.4911
    -2.4716  -2.3640  -2.3539  -2.3454  -2.3237  -2.2343  -2.2320  -2.1039
    -2.0827  -2.0299  -1.9825  -1.9360  -1.4270  -1.3127  -1.0620  -0.9437
    -0.8966  -0.8619  -0.6510  -0.5783  -0.5409  -0.4538  -0.4512  -0.3814
    -0.3479  -0.2815  -0.2479  -0.2447  -0.0673  -0.0583  -0.0266   0.0920
     0.1017   0.2598   0.2812   0.3004   0.3034   0.3597   0.3956   0.4469
     0.4860   0.5014   0.6333   0.6727   4.4187   4.6949   4.7356   4.9006
     5.1265   5.1505   5.1539   5.1682   5.1896   5.2224   5.2389   5.2523
     5.2655   5.3027   5.3068   5.3116   5.4056   5.5389   5.5513   5.6303
     5.6835   5.6867   5.6949   5.7616   5.8537   5.8794   5.8903   5.9214
     5.9228   5.9316   5.9439   5.9541   5.9760   5.9961   6.0265   6.0649
     6.0763   6.1760   6.2302   6.2877   6.5203   6.5819   6.5922   6.6001
     6.6918   6.7549   6.7578   6.7992   6.8227   6.8312   6.8398   6.8790
     6.9696   6.9779   7.0128   7.0735   7.1304   7.1417   7.1737   7.1831
     7.1916   7.2135   7.2160   7.2423   7.3081   7.3509   7.3540   7.4483
     7.6652   7.7616   7.7973   7.7995   7.8155   7.8190   7.8434   7.8511
     7.8561   7.8597   7.8716   7.8761   7.8828   7.8888   7.8962   7.9007
     7.9415   7.9443   7.9963   8.0723   8.1291   8.1619   8.1862   8.2522
     8.2584   8.2964   8.3034   8.3400   8.3632   8.4061   8.4495   8.4545
     8.4927   8.4946   8.5029   8.5258   8.5322   8.5373   8.5758   8.6114
     8.6183   8.6321   8.6588   8.6754   8.6780   8.7289   8.7368   8.7391
     8.7531   8.7723   8.8143   8.8146   8.8480   8.8705   8.9020   8.9476
     8.9562   8.9653   9.0392   9.1541   9.2512   9.3252   9.3422   9.3594
     9.3960   9.4274   9.4788   9.4880   9.5086   9.5533   9.5558   9.5804
     9.5825   9.6076   9.6116   9.6178   9.6513   9.6563   9.8542   9.8561
     9.8604   9.9759  10.0767  10.1724  10.2199  10.2256  10.3645  10.3883
    10.4043  10.4204  10.4741  10.6053  10.6722  10.6783  10.7252  10.7460
    10.7491  10.8128  10.8236  10.8270  10.8391  10.8439  10.8565  10.8729
    10.8750  10.8822  10.8848  10.8993  10.9084  10.9581  10.9656  10.9744
    11.0044  11.0469  11.1071  11.1261  11.1461  11.1595  11.1680  11.1804
    11.1978  11.2254  11.2586  11.2643  11.2692  11.2789  11.2800  11.2877
    11.2931  11.2966  11.3070  11.3174  11.3436  11.3607  11.3734  11.3813
    11.3859  11.3919  11.3945  11.4056  11.4204  11.4296  11.4792  11.4824
    11.4994  11.5183  11.5256  11.5926  11.6050  11.6150  11.6570  11.6616
    11.6785  11.6797  11.6856  11.6933  11.7148  11.7428  11.7488  11.7916
    11.8193  11.8427  11.8866  11.9107  11.9130  11.9439  11.9461  11.9508
    11.9775  11.9783  11.9957  12.0045  12.0693  12.0713  12.1062  12.1065
    12.1579  12.1853  12.1882  12.2421  12.2670  12.2741  12.2882  12.3507
    12.3530  13.1006  13.1247  13.2919  13.3244  13.3361  13.3555  13.3621
    13.4320  13.4487  13.5340  13.6346  13.6427  13.6473  13.6491  13.6828
    13.6979  13.7447  13.7580  13.7894  13.8215  13.8252  13.8289  13.8452
    13.8502  13.8806  13.8837  13.9131  13.9287  13.9310  13.9468  13.9562
    13.9690  14.0106  14.0531  14.0955  14.1098  14.1452  14.1558  14.1581
    14.1629  14.1660  14.1787  14.1813  14.2297  14.2414  14.2743  14.2939
    14.3381  14.3435  14.3663  14.3784  14.4028  14.4252  14.4382  14.4534
    14.4944  14.5449  14.5491  14.6500  14.6802  14.7045  14.7318  14.7536
    14.7679  14.7739  14.7907  14.8161  14.8183  14.8395  14.8814  14.8829
    14.9441  14.9494  14.9527  14.9845  15.0131  15.0582  15.0711  15.1443
    15.1733  15.2416  15.2583  15.2864  15.3639  15.3986  15.4198  15.4731
    15.4967

     occupation numbers 
     1.0000   1.0000   1.0000   1.0000   1.0000   1.0000   1.0000   1.0000
     1.0000   1.0000   1.0000   1.0000   1.0000   1.0000   1.0000   1.0000
     1.0000   1.0000   1.0000   1.0000   1.0000   1.0000   1.0000   1.0000
     1.0000   1.0000   1.0000   1.0000   1.0000   1.0000   1.0000   1.0000
     1.0000   1.0000   1.0000   1.0000   1.0000   1.0000   1.0000   1.0000
     1.0000   1.0000   1.0000   1.0000   1.0000   1.0000   1.0000   1.0000
     1.0000   1.0000   1.0000   1.0000   1.0000   1.0000   1.0000   1.0000
     1.0000   1.0000   1.0000   1.0000   1.0000   1.0000   1.0000   1.0000
     1.0000   1.0000   1.0000   1.0000   1.0000   1.0000   1.0000   1.0000
     1.0000   1.0000   1.0000   1.0000   1.0000   1.0000   1.0000   1.0000
     1.0000   1.0000   1.0000   1.0000   1.0000   1.0000   1.0000   1.0000
     1.0000   1.0000   1.0000   1.0000   1.0000   1.0000   1.0000   1.0000
     1.0000   1.0000   1.0000   1.0000   1.0000   1.0000   1.0000   1.0000
     1.0000   1.0000   1.0000   1.0000   1.0000   1.0000   1.0000   1.0000
     1.0000   1.0000   1.0000   1.0000   1.0000   1.0000   1.0000   1.0000
     1.0000   1.0000   1.0000   1.0000   1.0000   1.0000   1.0000   1.0000
     1.0000   1.0000   1.0000   1.0000   1.0000   1.0000   1.0000   1.0000
     1.0000   1.0000   1.0000   1.0000   1.0000   1.0000   1.0000   1.0000
     1.0000   1.0000   1.0000   1.0000   1.0000   1.0000   1.0000   1.0000
     1.0000   1.0000   1.0000   1.0000   1.0000   1.0000   1.0000   1.0000
     1.0000   1.0000   1.0000   1.0000   1.0000   1.0000   1.0000   1.0000
     1.0000   1.0000   1.0000   1.0000   1.0000   1.0000   1.0000   1.0000
     1.0000   1.0000   1.0000   1.0000   1.0000   1.0000   1.0000   1.0000
     1.0000   1.0000   1.0000   1.0000   1.0000   1.0000   1.0000   1.0000
     1.0000   1.0000   1.0000   1.0000   1.0000   1.0000   1.0000   1.0000
     1.0000   1.0000   1.0000   1.0000   1.0000   1.0000   1.0000   1.0000
     1.0000   1.0000   1.0000   1.0000   1.0000   1.0000   1.0000   1.0000
     1.0000   1.0000   1.0000   1.0000   1.0000   1.0000   1.0000   1.0000
     1.0000   1.0000   1.0000   1.0000   1.0000   1.0000   1.0000   1.0000
     1.0000   1.0000   1.0000   1.0000   1.0000   1.0000   1.0000   1.0000
     1.0000   1.0000   1.0000   1.0000   1.0000   1.0000   1.0000   1.0000
     1.0000   1.0000   1.0000   1.0000   1.0000   1.0000   1.0000   1.0000
     1.0000   1.0000   1.0000   1.0000   1.0000   1.0000   1.0000   1.0000
     1.0000   1.0000   1.0000   1.0000   1.0000   1.0000   1.0000   1.0000
     1.0000   1.0000   1.0000   1.0000   1.0000   1.0000   1.0000   1.0000
     1.0000   1.0000   1.0000   1.0000   1.0000   1.0000   1.0000   1.0000
     1.0000   1.0000   1.0000   1.0000   1.0000   1.0000   1.0000   1.0000
     1.0000   1.0000   1.0000   1.0000   1.0000   1.0000   1.0000   1.0000
     1.0000   1.0000   1.0000   1.0000   1.0000   1.0000   1.0000   1.0000
     1.0000   1.0000   1.0000   1.0000   1.0000   1.0000   1.0000   1.0000
     1.0000   1.0000   1.0000   1.0000   1.0000   1.0000   1.0000   1.0000
     1.0000   1.0000   1.0000   1.0000   1.0000   1.0000   1.0000   1.0000
     1.0000   1.0000   1.0000   1.0000   1.0000   1.0000   1.0000   1.0000
     1.0000   1.0000   1.0000   1.0000   1.0000   1.0000   1.0000   1.0000
     1.0000   1.0000   1.0000   1.0000   1.0000   1.0000   1.0000   1.0000
     1.0000   1.0000   1.0000   1.0000   1.0000   1.0000   1.0000   1.0000
     1.0000   1.0000   1.0000   1.0000   1.0000   1.0000   1.0000   1.0000
     1.0000   1.0000   1.0000   1.0000   1.0000   1.0000   1.0000   1.0000
     1.0000   1.0000   1.0000   1.0000   1.0000   1.0000   1.0000   1.0000
     1.0000   1.0000   1.0000   1.0000   1.0000   1.0000   1.0000   1.0000
     1.0000   1.0000   1.0000   1.0000   1.0000   1.0000   1.0001   1.0001
     1.0001   1.0002   1.0002   1.0002   1.0004   1.0007   1.0008   1.0022
     1.0038   1.0058   1.0123   1.0178   1.0184   1.0278   1.0286   1.0303
     1.0410   1.0413   1.0490   1.0531   1.0793   1.0798   1.0829   1.0828
     1.0566   1.0221   1.0174   0.8986   0.8242   0.8009   0.7533   0.5258
     0.5177   0.0000   0.0000   0.0000   0.0000   0.0000   0.0000   0.0000
     0.0000   0.0000   0.0000   0.0000   0.0000   0.0000   0.0000   0.0000
     0.0000   0.0000   0.0000   0.0000   0.0000   0.0000   0.0000   0.0000
     0.0000   0.0000   0.0000   0.0000   0.0000   0.0000   0.0000   0.0000
     0.0000   0.0000   0.0000   0.0000   0.0000   0.0000   0.0000   0.0000
     0.0000   0.0000   0.0000   0.0000   0.0000   0.0000   0.0000   0.0000
     0.0000   0.0000   0.0000   0.0000   0.0000   0.0000   0.0000   0.0000
     0.0000   0.0000   0.0000   0.0000   0.0000   0.0000   0.0000   0.0000
     0.0000   0.0000   0.0000   0.0000   0.0000   0.0000   0.0000   0.0000
     0.0000   0.0000   0.0000   0.0000   0.0000   0.0000   0.0000   0.0000
     0.0000   0.0000   0.0000   0.0000   0.0000   0.0000   0.0000   0.0000
     0.0000

          k = 0.0000 0.0000 0.2186 ( 69203 PWs)   bands (ev):

   -75.3483 -75.3406 -74.9495 -74.9480 -74.9332 -74.9320 -74.8965 -74.8960
   -74.8827 -74.8810 -74.8804 -74.8765 -74.8597 -74.8548 -74.8546 -74.8510
   -74.8505 -74.8486 -74.8485 -74.8466 -74.8463 -74.8453 -74.8448 -74.8445
   -74.8418 -74.8414 -74.8411 -74.8367 -74.8355 -74.8345 -74.8342 -41.4081
   -41.3986 -41.3849 -41.3737 -41.1628 -41.1600 -41.0111 -41.0093 -40.9888
   -40.9861 -40.9708 -40.9685 -40.9514 -40.9488 -40.9471 -40.9322 -40.9315
   -40.9310 -40.9306 -40.9300 -40.9295 -40.9264 -40.9254 -40.9252 -40.9246
   -40.9242 -40.9206 -40.9200 -40.9199 -40.9188 -40.9174 -40.9151 -40.9100
   -40.9094 -40.9086 -40.9080 -40.9020 -40.8727 -40.8679 -40.8559 -40.8519
   -40.8425 -40.8418 -40.8242 -40.8206 -40.8168 -40.8093 -40.8024 -40.8010
   -40.7999 -40.7982 -40.7956 -40.7906 -40.7904 -40.7886 -40.7881 -40.7848
   -40.7839 -40.7833 -40.7824 -40.7820 -40.7813 -40.7808 -40.7780 -40.7773
   -40.7769 -40.7740 -40.7736 -40.7708 -40.7707 -40.7702 -40.7662 -40.7654
   -40.7610 -40.7564 -40.7536 -40.7497 -40.7493 -40.7485 -40.7439 -40.7424
   -40.7408 -40.7366 -40.7357 -40.7353 -40.7325 -40.7318 -40.7296 -40.7285
   -40.7277 -40.7254 -40.7245 -40.7175  -4.3182  -4.1371  -3.5165  -3.4353
    -3.3943  -3.2909  -3.2521  -3.0756  -2.9805  -2.8978  -2.8421  -2.7966
    -2.7808  -2.7681  -2.6119  -2.5619  -2.5490  -2.5295  -2.4714  -2.4662
    -2.4322  -2.4259  -2.3201  -2.3014  -2.2916  -2.2287  -2.2189  -2.1302
    -2.1143  -2.0942  -1.9934  -1.9317  -1.3824  -1.2736  -1.2115  -1.0800
    -0.8108  -0.6600  -0.6057  -0.5733  -0.5656  -0.4873  -0.4822  -0.3955
    -0.3584  -0.3092  -0.2244  -0.2162  -0.1484  -0.0814   0.0489   0.1190
     0.1455   0.1970   0.2464   0.2854   0.3412   0.3620   0.3759   0.4417
     0.4886   0.5109   0.6370   0.6714   4.4369   4.7633   4.7931   4.8513
     4.9539   4.9921   5.1493   5.2323   5.2696   5.2881   5.3113   5.3420
     5.3554   5.3716   5.4042   5.4259   5.4657   5.5113   5.5195   5.5353
     5.5448   5.5612   5.5887   5.6020   5.6520   5.6693   5.8095   5.8230
     5.8916   5.9593   5.9638   5.9740   5.9964   6.0780   6.1563   6.1855
     6.3558   6.3956   6.4272   6.4509   6.4762   6.4874   6.5027   6.5346
     6.5811   6.6548   6.6986   6.7646   6.7970   6.8355   6.8554   6.8743
     6.9072   6.9303   6.9854   7.0238   7.0772   7.1179   7.1959   7.2399
     7.2733   7.2832   7.2962   7.3288   7.3517   7.4034   7.4250   7.4586
     7.4862   7.5180   7.6210   7.6723   7.7288   7.7561   7.7770   7.8369
     7.8689   7.8794   7.8893   7.9201   7.9482   7.9732   7.9893   8.0445
     8.0594   8.0758   8.1082   8.1232   8.1561   8.1896   8.2180   8.2427
     8.2886   8.3210   8.3413   8.3610   8.3714   8.3907   8.3994   8.4180
     8.4253   8.4485   8.4505   8.4731   8.4994   8.5109   8.5262   8.5376
     8.5807   8.5993   8.6238   8.6700   8.7073   8.7279   8.7680   8.7946
     8.7957   8.8199   8.8406   8.8474   8.8609   8.8707   8.9199   8.9905
     9.0065   9.0759   9.1460   9.1771   9.2159   9.2251   9.2871   9.3638
     9.4037   9.4530   9.4674   9.4869   9.4943   9.5122   9.5236   9.5315
     9.5645   9.5907   9.6540   9.6708   9.6868   9.7907   9.8410   9.8657
     9.9712   9.9921  10.0523  10.0964  10.2033  10.2295  10.2572  10.3438
    10.4247  10.4437  10.4783  10.4937  10.4994  10.5273  10.5594  10.5808
    10.6761  10.6855  10.7195  10.7420  10.7611  10.7971  10.8040  10.8109
    10.8562  10.8641  10.8960  10.9064  10.9616  10.9756  10.9969  11.0147
    11.0880  11.1021  11.1148  11.1335  11.1558  11.1945  11.1966  11.2200
    11.2263  11.2388  11.2532  11.2598  11.2707  11.2785  11.2893  11.2963
    11.3259  11.3386  11.3538  11.3737  11.3816  11.3995  11.4130  11.4217
    11.4543  11.4600  11.4658  11.4709  11.4867  11.4916  11.4994  11.5080
    11.5129  11.5243  11.5443  11.5640  11.5943  11.6051  11.6243  11.6355
    11.6487  11.6830  11.7091  11.7286  11.7466  11.7575  11.7942  11.8206
    11.8235  11.8816  11.9130  11.9206  11.9323  11.9565  11.9775  11.9849
    11.9888  12.0042  12.0111  12.0313  12.0467  12.0600  12.0693  12.1071
    12.1347  12.1382  12.1554  12.1885  12.1966  12.2182  12.2375  12.3131
    12.3462  13.1365  13.1590  13.2603  13.2812  13.3484  13.4166  13.4463
    13.4714  13.5020  13.5101  13.5275  13.5593  13.5829  13.6184  13.6529
    13.6751  13.6987  13.7099  13.7215  13.7444  13.7765  13.8010  13.8126
    13.8267  13.8347  13.8469  13.8702  13.8778  13.9108  13.9379  13.9715
    13.9935  14.0435  14.0481  14.0626  14.1290  14.1524  14.1603  14.1856
    14.1945  14.2118  14.2183  14.2646  14.2856  14.3207  14.3534  14.3869
    14.4229  14.4322  14.4400  14.4484  14.4619  14.4714  14.4829  14.4957
    14.5070  14.5100  14.5580  14.5681  14.6122  14.6296  14.6368  14.6644
    14.6899  14.6989  14.7286  14.7985  14.8355  14.8568  14.8850  14.9306
    14.9787  14.9888  15.0194  15.0373  15.0618  15.1140  15.1474  15.1698
    15.1886  15.2166  15.2298  15.2895  15.3015  15.3352  15.3598  15.4028
    15.4233

     occupation numbers 
     1.0000   1.0000   1.0000   1.0000   1.0000   1.0000   1.0000   1.0000
     1.0000   1.0000   1.0000   1.0000   1.0000   1.0000   1.0000   1.0000
     1.0000   1.0000   1.0000   1.0000   1.0000   1.0000   1.0000   1.0000
     1.0000   1.0000   1.0000   1.0000   1.0000   1.0000   1.0000   1.0000
     1.0000   1.0000   1.0000   1.0000   1.0000   1.0000   1.0000   1.0000
     1.0000   1.0000   1.0000   1.0000   1.0000   1.0000   1.0000   1.0000
     1.0000   1.0000   1.0000   1.0000   1.0000   1.0000   1.0000   1.0000
     1.0000   1.0000   1.0000   1.0000   1.0000   1.0000   1.0000   1.0000
     1.0000   1.0000   1.0000   1.0000   1.0000   1.0000   1.0000   1.0000
     1.0000   1.0000   1.0000   1.0000   1.0000   1.0000   1.0000   1.0000
     1.0000   1.0000   1.0000   1.0000   1.0000   1.0000   1.0000   1.0000
     1.0000   1.0000   1.0000   1.0000   1.0000   1.0000   1.0000   1.0000
     1.0000   1.0000   1.0000   1.0000   1.0000   1.0000   1.0000   1.0000
     1.0000   1.0000   1.0000   1.0000   1.0000   1.0000   1.0000   1.0000
     1.0000   1.0000   1.0000   1.0000   1.0000   1.0000   1.0000   1.0000
     1.0000   1.0000   1.0000   1.0000   1.0000   1.0000   1.0000   1.0000
     1.0000   1.0000   1.0000   1.0000   1.0000   1.0000   1.0000   1.0000
     1.0000   1.0000   1.0000   1.0000   1.0000   1.0000   1.0000   1.0000
     1.0000   1.0000   1.0000   1.0000   1.0000   1.0000   1.0000   1.0000
     1.0000   1.0000   1.0000   1.0000   1.0000   1.0000   1.0000   1.0000
     1.0000   1.0000   1.0000   1.0000   1.0000   1.0000   1.0000   1.0000
     1.0000   1.0000   1.0000   1.0000   1.0000   1.0000   1.0000   1.0000
     1.0000   1.0000   1.0000   1.0000   1.0000   1.0000   1.0000   1.0000
     1.0000   1.0000   1.0000   1.0000   1.0000   1.0000   1.0000   1.0000
     1.0000   1.0000   1.0000   1.0000   1.0000   1.0000   1.0000   1.0000
     1.0000   1.0000   1.0000   1.0000   1.0000   1.0000   1.0000   1.0000
     1.0000   1.0000   1.0000   1.0000   1.0000   1.0000   1.0000   1.0000
     1.0000   1.0000   1.0000   1.0000   1.0000   1.0000   1.0000   1.0000
     1.0000   1.0000   1.0000   1.0000   1.0000   1.0000   1.0000   1.0000
     1.0000   1.0000   1.0000   1.0000   1.0000   1.0000   1.0000   1.0000
     1.0000   1.0000   1.0000   1.0000   1.0000   1.0000   1.0000   1.0000
     1.0000   1.0000   1.0000   1.0000   1.0000   1.0000   1.0000   1.0000
     1.0000   1.0000   1.0000   1.0000   1.0000   1.0000   1.0000   1.0000
     1.0000   1.0000   1.0000   1.0000   1.0000   1.0000   1.0000   1.0000
     1.0000   1.0000   1.0000   1.0000   1.0000   1.0000   1.0000   1.0000
     1.0000   1.0000   1.0000   1.0000   1.0000   1.0000   1.0000   1.0000
     1.0000   1.0000   1.0000   1.0000   1.0000   1.0000   1.0000   1.0000
     1.0000   1.0000   1.0000   1.0000   1.0000   1.0000   1.0000   1.0000
     1.0000   1.0000   1.0000   1.0000   1.0000   1.0000   1.0000   1.0000
     1.0000   1.0000   1.0000   1.0000   1.0000   1.0000   1.0000   1.0000
     1.0000   1.0000   1.0000   1.0000   1.0000   1.0000   1.0000   1.0000
     1.0000   1.0000   1.0000   1.0000   1.0000   1.0000   1.0000   1.0000
     1.0000   1.0000   1.0000   1.0000   1.0000   1.0000   1.0000   1.0000
     1.0000   1.0000   1.0000   1.0000   1.0000   1.0000   1.0000   1.0000
     1.0000   1.0000   1.0000   1.0000   1.0000   1.0000   1.0000   1.0000
     1.0000   1.0000   1.0000   1.0000   1.0000   1.0000   1.0000   1.0000
     1.0000   1.0000   1.0000   1.0000   1.0000   1.0000   1.0000   1.0000
     1.0000   1.0000   1.0000   1.0000   1.0000   1.0000   1.0000   1.0000
     1.0000   1.0000   1.0000   1.0000   1.0000   1.0000   1.0000   1.0000
     1.0000   1.0000   1.0000   1.0000   1.0000   1.0000   1.0000   1.0000
     1.0000   1.0000   1.0000   1.0000   1.0000   1.0000   1.0000   1.0000
     1.0001   1.0002   1.0003   1.0005   1.0008   1.0010   1.0023   1.0039
     1.0041   1.0114   1.0184   1.0204   1.0240   1.0324   1.0410   1.0442
     1.0460   1.0530   1.0561   1.0653   1.0717   1.0765   1.0793   1.0828
     1.0740   1.0720   1.0589   1.0170   1.0031   0.9590   0.9111   0.6643
     0.5425   0.0000   0.0000   0.0000   0.0000   0.0000   0.0000   0.0000
     0.0000   0.0000   0.0000   0.0000   0.0000   0.0000   0.0000   0.0000
     0.0000   0.0000   0.0000   0.0000   0.0000   0.0000   0.0000   0.0000
     0.0000   0.0000   0.0000   0.0000   0.0000   0.0000   0.0000   0.0000
     0.0000   0.0000   0.0000   0.0000   0.0000   0.0000   0.0000   0.0000
     0.0000   0.0000   0.0000   0.0000   0.0000   0.0000   0.0000   0.0000
     0.0000   0.0000   0.0000   0.0000   0.0000   0.0000   0.0000   0.0000
     0.0000   0.0000   0.0000   0.0000   0.0000   0.0000   0.0000   0.0000
     0.0000   0.0000   0.0000   0.0000   0.0000   0.0000   0.0000   0.0000
     0.0000   0.0000   0.0000   0.0000   0.0000   0.0000   0.0000   0.0000
     0.0000   0.0000   0.0000   0.0000   0.0000   0.0000   0.0000   0.0000
     0.0000

          k = 0.0000-0.4095 0.0000 ( 69190 PWs)   bands (ev):

   -75.3483 -75.3406 -74.9494 -74.9480 -74.9331 -74.9320 -74.8965 -74.8960
   -74.8827 -74.8809 -74.8804 -74.8764 -74.8596 -74.8547 -74.8546 -74.8510
   -74.8505 -74.8485 -74.8485 -74.8466 -74.8463 -74.8452 -74.8448 -74.8446
   -74.8417 -74.8414 -74.8411 -74.8366 -74.8355 -74.8345 -74.8342 -41.4076
   -41.3981 -41.3855 -41.3742 -41.1625 -41.1597 -41.0108 -41.0091 -40.9884
   -40.9858 -40.9705 -40.9683 -40.9510 -40.9484 -40.9471 -40.9317 -40.9308
   -40.9305 -40.9302 -40.9298 -40.9295 -40.9260 -40.9248 -40.9246 -40.9244
   -40.9243 -40.9200 -40.9196 -40.9194 -40.9190 -40.9170 -40.9151 -40.9102
   -40.9093 -40.9082 -40.9079 -40.9017 -40.8727 -40.8681 -40.8558 -40.8518
   -40.8422 -40.8413 -40.8240 -40.8207 -40.8164 -40.8090 -40.8024 -40.8005
   -40.7997 -40.7977 -40.7964 -40.7903 -40.7898 -40.7881 -40.7878 -40.7847
   -40.7835 -40.7827 -40.7825 -40.7819 -40.7811 -40.7805 -40.7783 -40.7772
   -40.7769 -40.7736 -40.7732 -40.7711 -40.7703 -40.7697 -40.7658 -40.7650
   -40.7607 -40.7567 -40.7538 -40.7502 -40.7500 -40.7487 -40.7429 -40.7427
   -40.7424 -40.7378 -40.7370 -40.7361 -40.7328 -40.7322 -40.7306 -40.7296
   -40.7275 -40.7261 -40.7253 -40.7184  -4.1673  -4.1156  -3.6754  -3.6521
    -3.6305  -3.5814  -2.9510  -2.8077  -2.7711  -2.7543  -2.6580  -2.5975
    -2.5804  -2.5689  -2.5675  -2.5536  -2.5455  -2.5205  -2.5185  -2.5033
    -2.4962  -2.4675  -2.4627  -2.4282  -2.3521  -2.3174  -2.3147  -2.3056
    -2.1961  -2.1922  -2.1508  -2.1307  -1.1621  -0.9927  -0.9487  -0.9003
    -0.8325  -0.6954  -0.6926  -0.6902  -0.6741  -0.6101  -0.6092  -0.4092
    -0.3510  -0.3438  -0.2839  -0.0798  -0.0362   0.0487   0.0663   0.0700
     0.0810   0.1624   0.1809   0.2195   0.3108   0.3242   0.4460   0.4487
     0.4693   0.4938   0.6070   0.6772   4.5705   4.7937   4.8850   5.2100
     5.2412   5.2571   5.2733   5.2781   5.3009   5.3093   5.3360   5.3384
     5.3454   5.3526   5.3561   5.3721   5.3742   5.3758   5.3831   5.3893
     5.4200   5.4246   5.4555   5.4582   5.4603   5.5093   5.6786   5.7361
     5.7715   5.7990   6.0839   6.1445   6.1614   6.1829   6.2368   6.2527
     6.3250   6.3304   6.3588   6.3843   6.4586   6.6096   6.6528   6.6616
     6.6652   6.6890   6.7155   6.7267   6.7620   6.7635   6.7736   6.7894
     6.8087   6.8523   6.9919   7.1063   7.1150   7.1791   7.2412   7.2476
     7.2921   7.3325   7.5206   7.5297   7.5660   7.5793   7.5819   7.6111
     7.6568   7.6780   7.7010   7.7075   7.7305   7.7569   7.7778   7.8151
     7.8597   7.8735   7.8763   7.8817   7.8985   7.9159   7.9182   7.9235
     7.9433   7.9582   7.9705   7.9876   7.9973   8.0106   8.0205   8.0566
     8.1044   8.1183   8.1534   8.1729   8.1928   8.2002   8.2694   8.2750
     8.2975   8.3551   8.3601   8.3717   8.3960   8.4416   8.4739   8.4914
     8.5277   8.6494   8.7736   8.7771   8.8233   8.8289   8.8338   8.8579
     8.8813   8.8887   8.9360   8.9964   9.0060   9.0604   9.0987   9.1337
     9.1454   9.1546   9.1712   9.1821   9.2303   9.3012   9.3588   9.3815
     9.4422   9.4465   9.4680   9.4893   9.5285   9.5329   9.5505   9.5561
     9.5589   9.5656   9.5790   9.5950   9.6210   9.7484   9.7952   9.8251
     9.8982  10.0138  10.0283  10.0920  10.1102  10.1142  10.3331  10.3453
    10.3797  10.4301  10.4996  10.5706  10.5888  10.5990  10.6418  10.6638
    10.7370  10.7376  10.7797  10.7887  10.8013  10.8144  10.8324  10.8332
    10.8620  10.8648  10.8925  10.9116  10.9568  10.9650  10.9791  10.9958
    11.0153  11.0175  11.0993  11.1170  11.1485  11.1741  11.2119  11.2219
    11.2695  11.2847  11.2999  11.3020  11.3080  11.3149  11.3214  11.3270
    11.3335  11.3383  11.3502  11.3808  11.3814  11.4100  11.4268  11.4318
    11.4500  11.4608  11.4630  11.4713  11.4778  11.5215  11.5246  11.5259
    11.5333  11.5401  11.5428  11.5701  11.6042  11.6082  11.6348  11.6543
    11.6749  11.6760  11.6933  11.7213  11.7559  11.7947  11.8017  11.8198
    11.8371  11.8517  11.9009  11.9055  11.9263  11.9340  11.9443  11.9646
    11.9693  11.9753  11.9850  11.9927  11.9965  12.0046  12.0235  12.0322
    12.0601  12.0797  12.0865  12.1086  12.1589  12.2352  12.2467  12.2627
    12.3317  13.2061  13.3122  13.3229  13.3548  13.3853  13.4034  13.5073
    13.5379  13.5594  13.5883  13.6010  13.6050  13.6124  13.6286  13.6449
    13.6803  13.6981  13.7338  13.7423  13.7580  13.8098  13.8454  13.8649
    13.8725  13.8743  13.9165  13.9243  13.9256  13.9377  13.9739  13.9905
    13.9923  14.0058  14.0160  14.0236  14.0382  14.0388  14.0552  14.0705
    14.1009  14.1327  14.1415  14.1744  14.1962  14.2163  14.2465  14.2533
    14.2552  14.2626  14.2674  14.2828  14.3115  14.3126  14.3270  14.3516
    14.4370  14.4436  14.4716  14.7303  14.7958  14.8347  14.8403  14.8576
    14.8822  14.8986  14.9097  14.9421  14.9717  15.0089  15.0500  15.0728
    15.0866  15.0892  15.0934  15.1169  15.1454  15.1493  15.1723  15.2052
    15.2401  15.2540  15.2582  15.2972  15.3002  15.3076  15.3308  15.3376
    15.3727

     occupation numbers 
     1.0000   1.0000   1.0000   1.0000   1.0000   1.0000   1.0000   1.0000
     1.0000   1.0000   1.0000   1.0000   1.0000   1.0000   1.0000   1.0000
     1.0000   1.0000   1.0000   1.0000   1.0000   1.0000   1.0000   1.0000
     1.0000   1.0000   1.0000   1.0000   1.0000   1.0000   1.0000   1.0000
     1.0000   1.0000   1.0000   1.0000   1.0000   1.0000   1.0000   1.0000
     1.0000   1.0000   1.0000   1.0000   1.0000   1.0000   1.0000   1.0000
     1.0000   1.0000   1.0000   1.0000   1.0000   1.0000   1.0000   1.0000
     1.0000   1.0000   1.0000   1.0000   1.0000   1.0000   1.0000   1.0000
     1.0000   1.0000   1.0000   1.0000   1.0000   1.0000   1.0000   1.0000
     1.0000   1.0000   1.0000   1.0000   1.0000   1.0000   1.0000   1.0000
     1.0000   1.0000   1.0000   1.0000   1.0000   1.0000   1.0000   1.0000
     1.0000   1.0000   1.0000   1.0000   1.0000   1.0000   1.0000   1.0000
     1.0000   1.0000   1.0000   1.0000   1.0000   1.0000   1.0000   1.0000
     1.0000   1.0000   1.0000   1.0000   1.0000   1.0000   1.0000   1.0000
     1.0000   1.0000   1.0000   1.0000   1.0000   1.0000   1.0000   1.0000
     1.0000   1.0000   1.0000   1.0000   1.0000   1.0000   1.0000   1.0000
     1.0000   1.0000   1.0000   1.0000   1.0000   1.0000   1.0000   1.0000
     1.0000   1.0000   1.0000   1.0000   1.0000   1.0000   1.0000   1.0000
     1.0000   1.0000   1.0000   1.0000   1.0000   1.0000   1.0000   1.0000
     1.0000   1.0000   1.0000   1.0000   1.0000   1.0000   1.0000   1.0000
     1.0000   1.0000   1.0000   1.0000   1.0000   1.0000   1.0000   1.0000
     1.0000   1.0000   1.0000   1.0000   1.0000   1.0000   1.0000   1.0000
     1.0000   1.0000   1.0000   1.0000   1.0000   1.0000   1.0000   1.0000
     1.0000   1.0000   1.0000   1.0000   1.0000   1.0000   1.0000   1.0000
     1.0000   1.0000   1.0000   1.0000   1.0000   1.0000   1.0000   1.0000
     1.0000   1.0000   1.0000   1.0000   1.0000   1.0000   1.0000   1.0000
     1.0000   1.0000   1.0000   1.0000   1.0000   1.0000   1.0000   1.0000
     1.0000   1.0000   1.0000   1.0000   1.0000   1.0000   1.0000   1.0000
     1.0000   1.0000   1.0000   1.0000   1.0000   1.0000   1.0000   1.0000
     1.0000   1.0000   1.0000   1.0000   1.0000   1.0000   1.0000   1.0000
     1.0000   1.0000   1.0000   1.0000   1.0000   1.0000   1.0000   1.0000
     1.0000   1.0000   1.0000   1.0000   1.0000   1.0000   1.0000   1.0000
     1.0000   1.0000   1.0000   1.0000   1.0000   1.0000   1.0000   1.0000
     1.0000   1.0000   1.0000   1.0000   1.0000   1.0000   1.0000   1.0000
     1.0000   1.0000   1.0000   1.0000   1.0000   1.0000   1.0000   1.0000
     1.0000   1.0000   1.0000   1.0000   1.0000   1.0000   1.0000   1.0000
     1.0000   1.0000   1.0000   1.0000   1.0000   1.0000   1.0000   1.0000
     1.0000   1.0000   1.0000   1.0000   1.0000   1.0000   1.0000   1.0000
     1.0000   1.0000   1.0000   1.0000   1.0000   1.0000   1.0000   1.0000
     1.0000   1.0000   1.0000   1.0000   1.0000   1.0000   1.0000   1.0000
     1.0000   1.0000   1.0000   1.0000   1.0000   1.0000   1.0000   1.0000
     1.0000   1.0000   1.0000   1.0000   1.0000   1.0000   1.0000   1.0000
     1.0000   1.0000   1.0000   1.0000   1.0000   1.0000   1.0000   1.0000
     1.0000   1.0000   1.0000   1.0000   1.0000   1.0000   1.0000   1.0000
     1.0000   1.0000   1.0000   1.0000   1.0000   1.0000   1.0000   1.0000
     1.0000   1.0000   1.0000   1.0000   1.0000   1.0000   1.0000   1.0000
     1.0000   1.0000   1.0000   1.0000   1.0000   1.0000   1.0000   1.0000
     1.0000   1.0000   1.0000   1.0000   1.0000   1.0000   1.0000   1.0000
     1.0000   1.0000   1.0000   1.0000   1.0000   1.0000   1.0000   1.0000
     1.0000   1.0000   1.0000   1.0000   1.0000   1.0000   1.0000   1.0000
     1.0000   1.0000   1.0000   1.0000   1.0000   1.0000   1.0000   1.0001
     1.0001   1.0001   1.0002   1.0004   1.0010   1.0023   1.0027   1.0038
     1.0053   1.0069   1.0154   1.0165   1.0221   1.0245   1.0280   1.0356
     1.0375   1.0401   1.0443   1.0477   1.0494   1.0532   1.0618   1.0657
     1.0765   1.0816   1.0826   1.0826   1.0556   0.9171   0.8855   0.8378
     0.5958   0.0000   0.0000   0.0000   0.0000   0.0000   0.0000   0.0000
     0.0000   0.0000   0.0000   0.0000   0.0000   0.0000   0.0000   0.0000
     0.0000   0.0000   0.0000   0.0000   0.0000   0.0000   0.0000   0.0000
     0.0000   0.0000   0.0000   0.0000   0.0000   0.0000   0.0000   0.0000
     0.0000   0.0000   0.0000   0.0000   0.0000   0.0000   0.0000   0.0000
     0.0000   0.0000   0.0000   0.0000   0.0000   0.0000   0.0000   0.0000
     0.0000   0.0000   0.0000   0.0000   0.0000   0.0000   0.0000   0.0000
     0.0000   0.0000   0.0000   0.0000   0.0000   0.0000   0.0000   0.0000
     0.0000   0.0000   0.0000   0.0000   0.0000   0.0000   0.0000   0.0000
     0.0000   0.0000   0.0000   0.0000   0.0000   0.0000   0.0000   0.0000
     0.0000   0.0000   0.0000   0.0000   0.0000   0.0000   0.0000   0.0000
     0.0000

          k = 0.0000-0.4095 0.2186 ( 69180 PWs)   bands (ev):

   -75.3483 -75.3406 -74.9494 -74.9479 -74.9332 -74.9319 -74.8966 -74.8959
   -74.8827 -74.8809 -74.8803 -74.8764 -74.8596 -74.8549 -74.8544 -74.8509
   -74.8505 -74.8487 -74.8483 -74.8467 -74.8462 -74.8451 -74.8448 -74.8444
   -74.8417 -74.8414 -74.8410 -74.8366 -74.8355 -74.8344 -74.8341 -41.4076
   -41.3981 -41.3853 -41.3741 -41.1624 -41.1597 -41.0108 -41.0090 -40.9882
   -40.9858 -40.9704 -40.9682 -40.9510 -40.9482 -40.9471 -40.9316 -40.9310
   -40.9303 -40.9302 -40.9296 -40.9294 -40.9259 -40.9249 -40.9247 -40.9244
   -40.9241 -40.9201 -40.9195 -40.9194 -40.9188 -40.9169 -40.9153 -40.9099
   -40.9093 -40.9081 -40.9078 -40.9016 -40.8728 -40.8680 -40.8556 -40.8518
   -40.8420 -40.8415 -40.8239 -40.8206 -40.8163 -40.8089 -40.8030 -40.8005
   -40.7995 -40.7979 -40.7958 -40.7903 -40.7897 -40.7882 -40.7876 -40.7853
   -40.7834 -40.7827 -40.7824 -40.7817 -40.7813 -40.7804 -40.7779 -40.7772
   -40.7764 -40.7737 -40.7730 -40.7712 -40.7704 -40.7698 -40.7658 -40.7651
   -40.7606 -40.7571 -40.7541 -40.7508 -40.7494 -40.7486 -40.7440 -40.7437
   -40.7413 -40.7368 -40.7360 -40.7356 -40.7328 -40.7320 -40.7302 -40.7288
   -40.7275 -40.7255 -40.7253 -40.7177  -4.1126  -4.0572  -3.9238  -3.8834
    -3.3256  -3.2661  -2.9924  -2.8954  -2.8610  -2.7713  -2.7355  -2.7184
    -2.6888  -2.6612  -2.6383  -2.6139  -2.5280  -2.5151  -2.4550  -2.4361
    -2.3931  -2.3782  -2.3536  -2.3378  -2.3093  -2.3052  -2.2840  -2.2605
    -2.2357  -2.2210  -2.1936  -2.1773  -1.1515  -0.9551  -0.9164  -0.8926
    -0.8837  -0.8472  -0.7928  -0.6509  -0.6211  -0.5261  -0.4806  -0.4320
    -0.3936  -0.3330  -0.2893  -0.1077  -0.0399   0.0513   0.0667   0.0676
     0.0849   0.1208   0.1669   0.2384   0.3211   0.3623   0.4248   0.4478
     0.4726   0.4954   0.6049   0.6760   4.5727   4.8590   4.9397   5.0619
     5.1477   5.2394   5.2599   5.2725   5.2782   5.2883   5.3113   5.3157
     5.3260   5.3310   5.3470   5.3519   5.3569   5.3651   5.3925   5.4075
     5.4370   5.4465   5.5649   5.6038   5.6184   5.6293   5.7703   5.8198
     5.8470   5.9276   5.9432   5.9750   6.0106   6.0388   6.1955   6.2234
     6.2374   6.2872   6.3076   6.3458   6.3682   6.3870   6.3902   6.4160
     6.5991   6.7164   6.7608   6.8506   6.8672   6.9318   6.9478   7.0063
     7.0722   7.1203   7.1309   7.1452   7.1657   7.1867   7.3016   7.4024
     7.4379   7.4417   7.4725   7.4787   7.4887   7.5019   7.5209   7.5336
     7.5405   7.5485   7.5848   7.6024   7.6631   7.6947   7.7243   7.7469
     7.7703   7.8093   7.8202   7.8434   7.8830   7.9073   7.9111   7.9254
     7.9431   7.9559   7.9783   8.0069   8.0314   8.0391   8.0673   8.0726
     8.0807   8.1079   8.1193   8.1267   8.1551   8.1719   8.1755   8.2044
     8.2687   8.3197   8.3819   8.4603   8.6071   8.6343   8.6619   8.6690
     8.6939   8.7331   8.7578   8.7906   8.8151   8.8368   8.8692   8.9189
     8.9304   8.9465   8.9548   8.9652   8.9985   9.0133   9.0669   9.0697
     9.1211   9.1369   9.1528   9.1632   9.1907   9.2197   9.2582   9.2768
     9.3424   9.3641   9.4387   9.5072   9.5276   9.5734   9.5839   9.6742
     9.6764   9.6973   9.7125   9.7478   9.7565   9.8351   9.8411   9.8764
     9.8958   9.9286   9.9493   9.9755  10.0425  10.0559  10.0875  10.1347
    10.1527  10.2263  10.4308  10.4352  10.5925  10.6085  10.6204  10.6614
    10.6774  10.6975  10.7520  10.7739  10.7880  10.8092  10.8258  10.8406
    10.8491  10.8543  10.8786  10.9312  10.9575  11.0308  11.0563  11.1011
[...]
     atom   73 type  1   force =    -0.00005114    0.00001470   -0.00000963
     atom   74 type  1   force =    -0.00003300   -0.00008920    0.00041465
     atom   75 type  2   force =     0.00491106   -0.00283685   -0.00000134
     atom   76 type  2   force =    -0.00477920    0.00305927   -0.00000076
     atom   77 type  2   force =    -0.00498864   -0.00302675   -0.00004531
     atom   78 type  2   force =     0.00530616    0.00326644    0.00026466
     atom   79 type  1   force =    -0.00006083   -0.00006618   -0.00123236
     atom   80 type  1   force =     0.00106006   -0.00065451   -0.00205433
     atom   81 type  2   force =     0.00516922   -0.00257014    0.00030336
     atom   82 type  2   force =    -0.00518622    0.00317004    0.00024817
     atom   83 type  2   force =    -0.00488737   -0.00306209    0.00004990
     atom   84 type  2   force =     0.00653452    0.00389298   -0.00001482
     atom   85 type  1   force =     0.00108717   -0.00064648    0.00203491
     atom   86 type  2   force =     0.00316802   -0.01178618    0.00001782
     atom   87 type  2   force =    -0.00486835    0.00335644    0.00000516
     atom   88 type  2   force =    -0.00489400   -0.00306534   -0.00004371
     atom   89 type  2   force =     0.00652600    0.00388375    0.00003124
     atom   90 type  1   force =    -0.00000191   -0.00009386    0.00123463
     atom   91 type  1   force =    -0.00002937   -0.00009732   -0.00044541
     atom   92 type  2   force =     0.00517075   -0.00258194   -0.00030710
     atom   93 type  2   force =    -0.00519746    0.00315786   -0.00025859
     atom   94 type  2   force =    -0.00498425   -0.00302410    0.00005537
     atom   95 type  2   force =     0.00530964    0.00326888   -0.00026793
     atom   96 type  3   force =     0.00000000    0.00000000    0.00000000
     The Hubbard contrib.    to forces
     atom    1 type  1   force =     0.00000000    0.00000000    0.00000000
     atom    2 type  1   force =     0.00000000    0.00000000    0.00000000
     atom    3 type  2   force =     0.00000000    0.00000000    0.00000000
     atom    4 type  2   force =     0.00000000    0.00000000    0.00000000
     atom    5 type  2   force =     0.00000000    0.00000000    0.00000000
     atom    6 type  2   force =     0.00000000    0.00000000    0.00000000
     atom    7 type  1   force =     0.00000000    0.00000000    0.00000000
     atom    8 type  1   force =     0.00000000    0.00000000    0.00000000
     atom    9 type  2   force =     0.00000000    0.00000000    0.00000000
     atom   10 type  2   force =     0.00000000    0.00000000    0.00000000
     atom   11 type  2   force =     0.00000000    0.00000000    0.00000000
     atom   12 type  2   force =     0.00000000    0.00000000    0.00000000
     atom   13 type  1   force =     0.00000000    0.00000000    0.00000000
     atom   14 type  1   force =     0.00000000    0.00000000    0.00000000
     atom   15 type  2   force =     0.00000000    0.00000000    0.00000000
     atom   16 type  2   force =     0.00000000    0.00000000    0.00000000
     atom   17 type  2   force =     0.00000000    0.00000000    0.00000000
     atom   18 type  2   force =     0.00000000    0.00000000    0.00000000
     atom   19 type  1   force =     0.00000000    0.00000000    0.00000000
     atom   20 type  1   force =     0.00000000    0.00000000    0.00000000
     atom   21 type  2   force =     0.00000000    0.00000000    0.00000000
     atom   22 type  2   force =     0.00000000    0.00000000    0.00000000
     atom   23 type  2   force =     0.00000000    0.00000000    0.00000000
     atom   24 type  2   force =     0.00000000    0.00000000    0.00000000
     atom   25 type  1   force =     0.00000000    0.00000000    0.00000000
     atom   26 type  1   force =     0.00000000    0.00000000    0.00000000
     atom   27 type  2   force =     0.00000000    0.00000000    0.00000000
     atom   28 type  2   force =     0.00000000    0.00000000    0.00000000
     atom   29 type  2   force =     0.00000000    0.00000000    0.00000000
     atom   30 type  2   force =     0.00000000    0.00000000    0.00000000
     atom   31 type  1   force =     0.00000000    0.00000000    0.00000000
     atom   32 type  1   force =     0.00000000    0.00000000    0.00000000
     atom   33 type  2   force =     0.00000000    0.00000000    0.00000000
     atom   34 type  2   force =     0.00000000    0.00000000    0.00000000
     atom   35 type  2   force =     0.00000000    0.00000000    0.00000000
     atom   36 type  2   force =     0.00000000    0.00000000    0.00000000
     atom   37 type  1   force =     0.00000000    0.00000000    0.00000000
     atom   38 type  1   force =     0.00000000    0.00000000    0.00000000
     atom   39 type  2   force =     0.00000000    0.00000000    0.00000000
     atom   40 type  2   force =     0.00000000    0.00000000    0.00000000
     atom   41 type  2   force =     0.00000000    0.00000000    0.00000000
     atom   42 type  2   force =     0.00000000    0.00000000    0.00000000
     atom   43 type  1   force =     0.00000000    0.00000000    0.00000000
     atom   44 type  1   force =     0.00000000    0.00000000    0.00000000
     atom   45 type  2   force =     0.00000000    0.00000000    0.00000000
     atom   46 type  2   force =     0.00000000    0.00000000    0.00000000
     atom   47 type  2   force =     0.00000000    0.00000000    0.00000000
     atom   48 type  2   force =     0.00000000    0.00000000    0.00000000
     atom   49 type  1   force =     0.00000000    0.00000000    0.00000000
     atom   50 type  1   force =     0.00000000    0.00000000    0.00000000
     atom   51 type  2   force =     0.00000000    0.00000000    0.00000000
     atom   52 type  2   force =     0.00000000    0.00000000    0.00000000
     atom   53 type  2   force =     0.00000000    0.00000000    0.00000000
     atom   54 type  2   force =     0.00000000    0.00000000    0.00000000
     atom   55 type  1   force =     0.00000000    0.00000000    0.00000000
     atom   56 type  1   force =     0.00000000    0.00000000    0.00000000
     atom   57 type  2   force =     0.00000000    0.00000000    0.00000000
     atom   58 type  2   force =     0.00000000    0.00000000    0.00000000
     atom   59 type  2   force =     0.00000000    0.00000000    0.00000000
     atom   60 type  2   force =     0.00000000    0.00000000    0.00000000
     atom   61 type  1   force =     0.00000000    0.00000000    0.00000000
     atom   62 type  1   force =     0.00000000    0.00000000    0.00000000
     atom   63 type  2   force =     0.00000000    0.00000000    0.00000000
     atom   64 type  2   force =     0.00000000    0.00000000    0.00000000
     atom   65 type  2   force =     0.00000000    0.00000000    0.00000000
     atom   66 type  2   force =     0.00000000    0.00000000    0.00000000
     atom   67 type  1   force =     0.00000000    0.00000000    0.00000000
     atom   68 type  1   force =     0.00000000    0.00000000    0.00000000
     atom   69 type  2   force =     0.00000000    0.00000000    0.00000000
     atom   70 type  2   force =     0.00000000    0.00000000    0.00000000
     atom   71 type  2   force =     0.00000000    0.00000000    0.00000000
     atom   72 type  2   force =     0.00000000    0.00000000    0.00000000
     atom   73 type  1   force =     0.00000000    0.00000000    0.00000000
     atom   74 type  1   force =     0.00000000    0.00000000    0.00000000
     atom   75 type  2   force =     0.00000000    0.00000000    0.00000000
     atom   76 type  2   force =     0.00000000    0.00000000    0.00000000
     atom   77 type  2   force =     0.00000000    0.00000000    0.00000000
     atom   78 type  2   force =     0.00000000    0.00000000    0.00000000
     atom   79 type  1   force =     0.00000000    0.00000000    0.00000000
     atom   80 type  1   force =     0.00000000    0.00000000    0.00000000
     atom   81 type  2   force =     0.00000000    0.00000000    0.00000000
     atom   82 type  2   force =     0.00000000    0.00000000    0.00000000
     atom   83 type  2   force =     0.00000000    0.00000000    0.00000000
     atom   84 type  2   force =     0.00000000    0.00000000    0.00000000
     atom   85 type  1   force =     0.00000000    0.00000000    0.00000000
     atom   86 type  2   force =     0.00000000    0.00000000    0.00000000
     atom   87 type  2   force =     0.00000000    0.00000000    0.00000000
     atom   88 type  2   force =     0.00000000    0.00000000    0.00000000
     atom   89 type  2   force =     0.00000000    0.00000000    0.00000000
     atom   90 type  1   force =     0.00000000    0.00000000    0.00000000
     atom   91 type  1   force =     0.00000000    0.00000000    0.00000000
     atom   92 type  2   force =     0.00000000    0.00000000    0.00000000
     atom   93 type  2   force =     0.00000000    0.00000000    0.00000000
     atom   94 type  2   force =     0.00000000    0.00000000    0.00000000
     atom   95 type  2   force =     0.00000000    0.00000000    0.00000000
     atom   96 type  3   force =     0.00000000    0.00000000    0.00000000
     The SCF correction term to forces
     atom    1 type  1   force =    -0.00001351   -0.00003755   -0.00001576
     atom    2 type  1   force =    -0.00001974   -0.00001009   -0.00013557
     atom    3 type  2   force =    -0.00000769   -0.00000085   -0.00000687
     atom    4 type  2   force =     0.00000170   -0.00000859   -0.00000985
     atom    5 type  2   force =     0.00000025    0.00000722   -0.00005439
     atom    6 type  2   force =    -0.00001174   -0.00001468   -0.00005207
     atom    7 type  1   force =    -0.00002058   -0.00003191   -0.00017536
     atom    8 type  1   force =     0.00010814   -0.00000780   -0.00004567
     atom    9 type  2   force =    -0.00001019   -0.00000721   -0.00006782
     atom   10 type  2   force =     0.00000974   -0.00000964   -0.00003729
     atom   11 type  2   force =     0.00005104    0.00001902   -0.00003465
     atom   12 type  2   force =     0.00000241    0.00000195   -0.00003139
     atom   13 type  1   force =    -0.00002939   -0.00001940    0.00001454
     atom   14 type  1   force =     0.00011362    0.00000045    0.00007450
     atom   15 type  2   force =     0.00000513   -0.00000813    0.00000626
     atom   16 type  2   force =     0.00005612    0.00004222    0.00000882
     atom   17 type  2   force =     0.00005494    0.00002090    0.00004643
     atom   18 type  2   force =     0.00000343    0.00000319    0.00004076
     atom   19 type  1   force =    -0.00001918   -0.00002901    0.00017561
     atom   20 type  1   force =    -0.00001443   -0.00000220    0.00010600
     atom   21 type  2   force =    -0.00000876   -0.00000495    0.00006855
     atom   22 type  2   force =     0.00001461    0.00000137    0.00003797
     atom   23 type  2   force =     0.00000407    0.00000824    0.00004245
     atom   24 type  2   force =    -0.00001137   -0.00001299    0.00004275
     atom   25 type  1   force =    -0.00001492    0.00003194   -0.00002064
     atom   26 type  1   force =    -0.00001158    0.00001026   -0.00013646
     atom   27 type  2   force =    -0.00000986    0.00001757   -0.00000738
     atom   28 type  2   force =     0.00000360   -0.00000680   -0.00000739
     atom   29 type  2   force =    -0.00000085   -0.00000582   -0.00004767
     atom   30 type  2   force =    -0.00002228    0.00002004   -0.00005862
     atom   31 type  1   force =    -0.00001334    0.00002005   -0.00022384
     atom   32 type  1   force =     0.00005359   -0.00008359   -0.00012695
     atom   33 type  2   force =     0.00000132    0.00001848   -0.00006981
     atom   34 type  2   force =     0.00000574   -0.00001230   -0.00006038
     atom   35 type  2   force =    -0.00000417    0.00000690   -0.00004443
     atom   36 type  2   force =     0.00003183   -0.00000067    0.00001017
     atom   37 type  1   force =    -0.00001999    0.00001884    0.00002136
     atom   38 type  1   force =     0.00006199   -0.00009611    0.00015452
     atom   39 type  2   force =     0.00001648    0.00000899    0.00000694
     atom   40 type  2   force =     0.00003650   -0.00004267    0.00000704
     atom   41 type  2   force =    -0.00000355    0.00000682    0.00005255
     atom   42 type  2   force =     0.00004001   -0.00000568    0.00000827
     atom   43 type  1   force =    -0.00001482    0.00001768    0.00022324
     atom   44 type  1   force =    -0.00000473   -0.00000053    0.00010962
     atom   45 type  2   force =     0.00000384    0.00001448    0.00007017
     atom   46 type  2   force =     0.00000760   -0.00001739    0.00006068
     atom   47 type  2   force =    -0.00000006   -0.00000621    0.00003976
     atom   48 type  2   force =    -0.00001487    0.00001576    0.00003874
     atom   49 type  1   force =     0.00001084   -0.00003099   -0.00001674
     atom   50 type  1   force =     0.00001356   -0.00000679   -0.00012937
     atom   51 type  2   force =     0.00000478   -0.00000216   -0.00000755
     atom   52 type  2   force =     0.00000092   -0.00000785   -0.00000752
     atom   53 type  2   force =     0.00002958    0.00000025   -0.00005657
     atom   54 type  2   force =    -0.00000509   -0.00001411   -0.00004644
     atom   55 type  1   force =     0.00001306   -0.00002032   -0.00015258
     atom   56 type  1   force =    -0.00009796    0.00007129   -0.00006437
     atom   57 type  2   force =     0.00000229    0.00000546   -0.00005118
     atom   58 type  2   force =    -0.00001085   -0.00000974   -0.00006566
     atom   59 type  2   force =    -0.00002615    0.00000833    0.00002319
     atom   60 type  2   force =    -0.00000779   -0.00001606   -0.00003827
     atom   61 type  1   force =     0.00004229    0.00003516    0.00001613
     atom   62 type  1   force =    -0.00010399    0.00008539    0.00009389
     atom   63 type  2   force =    -0.00002059    0.00004063    0.00000730
     atom   64 type  2   force =    -0.00004125   -0.00000417    0.00000753
     atom   65 type  2   force =    -0.00003405    0.00001228   -0.00000478
     atom   66 type  2   force =    -0.00000832   -0.00001497    0.00004639
     atom   67 type  1   force =     0.00001192   -0.00001891    0.00015282
     atom   68 type  1   force =     0.00000723    0.00000413    0.00010071
     atom   69 type  2   force =     0.00000047    0.00001107    0.00005138
     atom   70 type  2   force =    -0.00001337   -0.00000622    0.00006555
     atom   71 type  2   force =     0.00002207    0.00000397    0.00003647
     atom   72 type  2   force =    -0.00000559   -0.00001279    0.00003830
     atom   73 type  1   force =     0.00001690    0.00003526   -0.00003637
     atom   74 type  1   force =     0.00001852    0.00000717   -0.00015238
     atom   75 type  2   force =     0.00000517    0.00001673   -0.00000918
     atom   76 type  2   force =     0.00000207   -0.00000786   -0.00000616
     atom   77 type  2   force =     0.00001666   -0.00000488   -0.00005310
     atom   78 type  2   force =    -0.00000683    0.00001168   -0.00005527
     atom   79 type  1   force =     0.00002495    0.00003013   -0.00002242
     atom   80 type  1   force =    -0.00009044    0.00000851   -0.00002441
     atom   81 type  2   force =    -0.00000504    0.00001156   -0.00004441
     atom   82 type  2   force =     0.00000777    0.00000381   -0.00007503
     atom   83 type  2   force =     0.00000673   -0.00000627   -0.00003014
     atom   84 type  2   force =    -0.00006200   -0.00001209   -0.00003077
     atom   85 type  1   force =    -0.00009768   -0.00000205    0.00005069
     atom   86 type  2   force =    -0.00002316   -0.00005026    0.00000934
     atom   87 type  2   force =    -0.00001276    0.00000202    0.00000596
     atom   88 type  2   force =     0.00000573   -0.00000709    0.00003907
     atom   89 type  2   force =    -0.00006620   -0.00001447    0.00004244
     atom   90 type  1   force =     0.00002530    0.00002883    0.00002451
     atom   91 type  1   force =     0.00001164   -0.00000168    0.00012508
     atom   92 type  2   force =    -0.00001022   -0.00000012    0.00004434
     atom   93 type  2   force =     0.00000653    0.00000171    0.00007512
     atom   94 type  2   force =     0.00001572   -0.00000554    0.00004409
     atom   95 type  2   force =    -0.00001048    0.00000957    0.00004343
     atom   96 type  3   force =     0.00000960    0.00000704    0.00000229

     Total force =     0.006665     Total SCF correction =     0.000825
     SCF correction compared to forces is large: reduce conv_thr to get better values

     Writing all to output data dir /tmp/neb_canonical_marc_96at_qe_VFe/image_01/tmp/image_01.save/ :
     XML data file, charge density, pseudopotentials, collected wavefunctions
 
     init_run     :      7.89s CPU     12.29s WALL (       1 calls)
     electrons    :    322.47s CPU    432.38s WALL (       1 calls)
     forces       :      3.73s CPU      4.92s WALL (       1 calls)

     Called by init_run:
     wfcinit      :      5.57s CPU      8.53s WALL (       1 calls)
     wfcinit:atom :      0.14s CPU      0.14s WALL (      16 calls)
     wfcinit:wfcr :      4.51s CPU      4.73s WALL (      16 calls)
     potinit      :      0.09s CPU      0.18s WALL (       1 calls)
     hinit0       :      2.00s CPU      1.58s WALL (       1 calls)

     Called by electrons:
     c_bands      :    277.24s CPU    356.73s WALL (      19 calls)
     sum_band     :     40.45s CPU     67.43s WALL (      19 calls)
     v_of_rho     :      0.98s CPU      0.68s WALL (      20 calls)
     v_h          :      0.47s CPU      0.22s WALL (      20 calls)
     v_xc         :      0.53s CPU      0.48s WALL (      21 calls)
     mix_rho      :      3.06s CPU      6.73s WALL (      19 calls)

     Called by c_bands:
     init_us_2    :      3.42s CPU      3.68s WALL (     640 calls)
     cegterg      :    242.60s CPU    243.31s WALL (     304 calls)

     Called by sum_band:
     sum_band:wei :      0.23s CPU      0.24s WALL (      19 calls)
     sum_band:loo :     39.86s CPU     66.78s WALL (      19 calls)
     sum_band:buf :     14.35s CPU     41.31s WALL (     304 calls)
     sum_band:ini :      1.69s CPU      1.75s WALL (     304 calls)

     Called by *egterg:
     cdiaghg      :     31.06s CPU     31.68s WALL (    1498 calls)
                                       31.67s GPU  (    1498 calls)
     cegterg:over :     32.23s CPU     32.28s WALL (    1194 calls)
     cegterg:upda :     12.01s CPU     12.03s WALL (    1194 calls)
     cegterg:last :     16.02s CPU     16.04s WALL (     613 calls)
     h_psi        :    135.52s CPU    135.85s WALL (    1514 calls)
     g_psi        :      0.39s CPU      0.40s WALL (    1194 calls)

     Called by h_psi:
     h_psi:calbec :      0.09s CPU      0.12s WALL (    1514 calls)
     vloc_psi     :    107.68s CPU    107.68s WALL (    1514 calls)
                                      107.67s GPU  (    1514 calls)
     add_vuspsi   :     26.91s CPU     27.14s WALL (    1514 calls)

     General routines
     calbec       :      0.08s CPU      0.12s WALL (    1578 calls)
     fft          :      0.01s CPU      0.04s WALL (     395 calls)
                                        0.03s GPU  (     395 calls)
     ffts         :      0.01s CPU      0.05s WALL (     520 calls)
                                        0.04s GPU  (     520 calls)
     fftw         :      0.74s CPU     96.24s WALL (   60040 calls)
                                       95.41s GPU  (   60040 calls)
     davcio       :      1.20s CPU    112.52s WALL (    1306 calls)
 
     Parallel routines
 
     PWSCF        :   5m35.14s CPU   7m40.53s WALL

 
   This run was terminated on:   4:32: 0  29May2026            

=------------------------------------------------------------------------------=
   JOB DONE.
=------------------------------------------------------------------------------=
