
     Program PWSCF v.7.5 starts on 29May2026 at 14:47:44 

     This program is part of the open-source Quantum ESPRESSO suite
     for quantum simulation of materials; please cite
         "P. Giannozzi et al., J. Phys.:Condens. Matter 21 395502 (2009);
         "P. Giannozzi et al., J. Phys.:Condens. Matter 29 465901 (2017);
         "P. Giannozzi et al., J. Chem. Phys. 152 154105 (2020);
          URL http://www.quantum-espresso.org", 
     in publications or presentations arising from this work. More details at
     http://www.quantum-espresso.org/quote

     Parallel version (MPI & OpenMP), running on       8 processor cores
     Number of MPI processes:                 1
     Threads/MPI process:                     8

     MPI processes distributed on     1 nodes
     259249 MiB available memory on the printing compute node when the environment starts
 
     Reading input from espresso.pwi
Warning: card &CELL ignored
Warning: card &FCP ignored
Warning: card &RISM ignored

     Current dimensions of program PWSCF are:
     Max number of different atomic species (ntypx) = 10
     Max number of k-points (npk) =  40000
     Max angular momentum in pseudopotentials (lmaxx) =  4
 
     Subspace diagonalization in iterative solution of the eigenvalue problem:
     a serial algorithm will be used

 
     G-vector sticks info
     --------------------
     sticks:   dense  smooth     PW     G-vecs:    dense   smooth      PW
     Sum        6591    6591   1755               553421   553421   76211
 
     Using Slab Decomposition
 


     bravais-lattice index     =            0
     lattice parameter (alat)  =      16.7921  a.u.
     unit-cell volume          =    8814.7061 (a.u.)^3
     number of atoms/cell      =           96
     number of atomic types    =            3
     number of electrons       =       881.00
     number of Kohn-Sham states=          529
     kinetic-energy cutoff     =      60.0000  Ry
     charge density cutoff     =     240.0000  Ry
     scf convergence threshold =      1.0E-07
     mixing beta               =       0.2000
     number of iterations used =           12  local-TF  mixing
     Exchange-correlation= PBE
                           (   1   4   3   4   0   0   0)

     GPU acceleration is ACTIVE.  1 visible GPUs per MPI rank


     GPU used by master process:

        Device Number: 0
        Device name: NVIDIA A100-SXM4-40GB
        Compute capability : 80
        Ratio of single to double precision performance  : 2
        Memory Clock Rate (KHz): 1215000
        Memory Bus Width (bits): 5120
        Peak Memory Bandwidth (GB/s): ******

     celldm(1)=  16.792106  celldm(2)=   0.000000  celldm(3)=   0.000000
     celldm(4)=   0.000000  celldm(5)=   0.000000  celldm(6)=   0.000000

     crystal axes: (cart. coord. in units of alat)
               a(1) = (   1.000000   0.000000   0.000000 )  
               a(2) = (   0.000000   1.221022   0.000000 )  
               a(3) = (   0.000000   0.000000   1.524646 )  

     reciprocal axes: (cart. coord. in units 2 pi/alat)
               b(1) = (  1.000000  0.000000  0.000000 )  
               b(2) = (  0.000000  0.818986  0.000000 )  
               b(3) = (  0.000000  0.000000  0.655890 )  


     PseudoPot. # 1 for Fe read from file:
     /opt/pp/oncv_pbe/Fe.upf
     MD5 check sum: a5f07f5dca5be6cacb81ceb54992e4ae
     Pseudo is Norm-conserving + core correction, Zval = 16.0
     Generated using ONCVPSP code by D. R. Hamann
     Using radial grid of 1426 points,  6 beta functions with: 
                l(1) =   0
                l(2) =   0
                l(3) =   1
                l(4) =   1
                l(5) =   2
                l(6) =   2

     PseudoPot. # 2 for S  read from file:
     /opt/pp/oncv_pbe/S.upf
     MD5 check sum: 6027e7704d67ae28863b2247926ce6f3
     Pseudo is Norm-conserving + core correction, Zval =  6.0
     Generated using ONCVPSP code by D. R. Hamann
     Using radial grid of 1146 points,  6 beta functions with: 
                l(1) =   0
                l(2) =   0
                l(3) =   1
                l(4) =   1
                l(5) =   2
                l(6) =   2

     PseudoPot. # 3 for H  read from file:
     /opt/pp/oncv_pbe/H.upf
     MD5 check sum: e96aa7e3e4a958db16958554ea960e2a
     Pseudo is Norm-conserving, Zval =  1.0
     Generated using ONCVPSP code by D. R. Hamann
     Using radial grid of 1166 points,  3 beta functions with: 
                l(1) =   0
                l(2) =   0
                l(3) =   1

     atomic species   valence    mass     pseudopotential
     Fe               16.00    55.84500     Fe( 1.00)
     S                 6.00    32.06000     S ( 1.00)
     H                 1.00     1.00800     H ( 1.00)

     Starting magnetic structure 
     atomic species   magnetization
     Fe              0.065
     S               0.000
     H               0.000

     No symmetry found


                                    s                        frac. trans.

      isym =  1     identity                                     

 cryst.   s( 1) = (     1          0          0      )
                  (     0          1          0      )
                  (     0          0          1      )

 cart.    s( 1) = (  1.0000000  0.0000000  0.0000000 )
                  (  0.0000000  1.0000000  0.0000000 )
                  (  0.0000000  0.0000000  1.0000000 )


   Cartesian axes

     site n.     atom                  positions (alat units)
         1        Fe     tau(   1) = (   0.0006267   0.0002242   0.0003449  )
         2        Fe     tau(   2) = (   0.2512068   0.3051107   0.1907317  )
         3        S      tau(   3) = (   0.1050656   0.2289465  -0.0000300  )
         4        S      tau(   4) = (   0.3968764   0.3818030   0.0001219  )
         5        S      tau(   5) = (   0.1471990   0.5334725   0.1906522  )
         6        S      tau(   6) = (   0.3545783   0.0762836   0.1908911  )
         7        Fe     tau(   7) = (   0.0008315  -0.0010220   0.3813715  )
         8        Fe     tau(   8) = (   0.2491676   0.3033123   0.5708304  )
         9        S      tau(   9) = (   0.1036592   0.2271957   0.3796705  )
        10        S      tau(  10) = (   0.3980949   0.3797294   0.3815519  )
        11        S      tau(  11) = (   0.1422325   0.5321000   0.5699083  )
        12        S      tau(  12) = (   0.3543062   0.0752682   0.5716392  )
        13        Fe     tau(  13) = (   0.0008126  -0.0004737   0.7627751  )
        14        Fe     tau(  14) = (   0.2501454   0.3056032   0.9536708  )
        15        S      tau(  15) = (   0.1032046   0.2282830   0.7628049  )
        16        S      tau(  16) = (   0.3920032   0.3763575   0.7614144  )
        17        S      tau(  17) = (   0.1469946   0.5371143   0.9552540  )
        18        S      tau(  18) = (   0.3542334   0.0772912   0.9535142  )
        19        Fe     tau(  19) = (   0.0007261   0.0009467   1.1440490  )
        20        Fe     tau(  20) = (   0.2512451   0.3060447   1.3338144  )
        21        S      tau(  21) = (   0.1041045   0.2289089   1.1445025  )
        22        S      tau(  22) = (   0.3975662   0.3818870   1.1424831  )
        23        S      tau(  23) = (   0.1472441   0.5341022   1.3343108  )
        24        S      tau(  24) = (   0.3546557   0.0773170   1.3346147  )
        25        Fe     tau(  25) = (   0.0007122   0.6107863   0.0003356  )
        26        Fe     tau(  26) = (   0.2507193   0.9156676   0.1915311  )
        27        S      tau(  27) = (   0.1044934   0.8395128   0.0008303  )
        28        S      tau(  28) = (   0.3966148   0.9927311   0.0009316  )
        29        S      tau(  29) = (   0.1467572   1.1442012   0.1906204  )
        30        S      tau(  30) = (   0.3543514   0.6869522   0.1914747  )
        31        Fe     tau(  31) = (   0.0008212   0.6101723   0.3796350  )
        32        Fe     tau(  32) = (   0.2509913   0.9138574   0.5740999  )
        33        S      tau(  33) = (   0.1039275   0.8388244   0.3815582  )
        34        S      tau(  34) = (   0.3964656   0.9915234   0.3821092  )
        35        S      tau(  35) = (   0.1469504   1.1429925   0.5722972  )
        36        S      tau(  36) = (   0.3484462   0.6816775   0.5667988  )
        37        Fe     tau(  37) = (   0.0001691   0.6102483   0.7628206  )
        38        Fe     tau(  38) = (   0.2485153   0.9171768   0.9565125  )
        39        S      tau(  39) = (   0.1030767   0.8395935   0.7641105  )
        40        S      tau(  40) = (   0.4002966   0.9917158   0.7649374  )
        41        S      tau(  41) = (   0.1464934   1.1455575   0.9535812  )
        42        S      tau(  42) = (   0.3454864   0.6905046   0.9609429  )
        43        Fe     tau(  43) = (   0.0003342   0.6114929   1.1464159  )
        44        Fe     tau(  44) = (   0.2506176   0.9165841   1.3350633  )
        45        S      tau(  45) = (   0.1020604   0.8413301   1.1459339  )
        46        S      tau(  46) = (   0.3958776   0.9939508   1.1449684  )
        47        S      tau(  47) = (   0.1467225   1.1452673   1.3349933  )
        48        S      tau(  48) = (   0.3542151   0.6880047   1.3351400  )
        49        Fe     tau(  49) = (   0.5006423   0.0002559   0.0004048  )
        50        Fe     tau(  50) = (   0.7506965   0.3050162   0.1904699  )
        51        S      tau(  51) = (   0.6045941   0.2288801   0.0000782  )
        52        S      tau(  52) = (   0.8967539   0.3819725   0.0001631  )
        53        S      tau(  53) = (   0.6471371   0.5336508   0.1904647  )
        54        S      tau(  54) = (   0.8545346   0.0761646   0.1905928  )
        55        Fe     tau(  55) = (   0.5005773  -0.0005222   0.3814724  )
        56        Fe     tau(  56) = (   0.7531447   0.3044308   0.5701461  )
        57        S      tau(  57) = (   0.6052141   0.2277546   0.3808793  )
        58        S      tau(  58) = (   0.8983452   0.3800835   0.3792066  )
        59        S      tau(  59) = (   0.6558790   0.5319470   0.5656561  )
        60        S      tau(  60) = (   0.8549629   0.0757014   0.5718555  )
        61        Fe     tau(  61) = (   0.5007474   0.0020586   0.7628389  )
        62        Fe     tau(  62) = (   0.7523910   0.3060641   0.9545956  )
        63        S      tau(  63) = (   0.6043125   0.2309984   0.7618795  )
        64        S      tau(  64) = (   0.8979594   0.3813046   0.7624914  )
        65        S      tau(  65) = (   0.6558121   0.5327320   0.9603944  )
        66        S      tau(  66) = (   0.8547150   0.0767700   0.9533496  )
        67        Fe     tau(  67) = (   0.5005190   0.0010970   1.1441256  )
        68        Fe     tau(  68) = (   0.7506253   0.3057837   1.3340562  )
        69        S      tau(  69) = (   0.6048786   0.2291283   1.1440314  )
        70        S      tau(  70) = (   0.8989571   0.3816403   1.1454028  )
        71        S      tau(  71) = (   0.6470578   0.5343568   1.3348188  )
        72        S      tau(  72) = (   0.8545717   0.0770950   1.3348277  )
        73        Fe     tau(  73) = (   0.5007801   0.6108135   0.0002421  )
        74        Fe     tau(  74) = (   0.7502592   0.9156552   0.1916971  )
        75        S      tau(  75) = (   0.6043828   0.8399208   0.0006008  )
        76        S      tau(  76) = (   0.8961830   0.9926923   0.0006027  )
        77        S      tau(  77) = (   0.6466364   1.1443414   0.1910170  )
        78        S      tau(  78) = (   0.8541473   0.6876185   0.1909966  )
        79        Fe     tau(  79) = (   0.5018099   0.6092029   0.3843869  )
        80        Fe     tau(  80) = (   0.7495760   0.9167126   0.5720712  )
        81        S      tau(  81) = (   0.6037122   0.8394211   0.3823826  )
        82        S      tau(  82) = (   0.8970609   0.9925675   0.3816705  )
        83        S      tau(  83) = (   0.6468715   1.1454443   0.5718578  )
        84        S      tau(  84) = (   0.8521320   0.6847144   0.5713299  )
        85        Fe     tau(  85) = (   0.7497415   0.9175712   0.9539847  )
        86        S      tau(  86) = (   0.6044448   0.8458734   0.7639753  )
        87        S      tau(  87) = (   0.8966060   0.9922138   0.7628135  )
        88        S      tau(  88) = (   0.6470016   1.1464941   0.9538483  )
        89        S      tau(  89) = (   0.8527791   0.6855817   0.9548586  )
        90        Fe     tau(  90) = (   0.5006879   0.6113373   1.1387144  )
        91        Fe     tau(  91) = (   0.7498144   0.9164225   1.3343271  )
        92        S      tau(  92) = (   0.6031718   0.8412735   1.1429488  )
        93        S      tau(  93) = (   0.8972094   0.9938987   1.1448788  )
        94        S      tau(  94) = (   0.6465584   1.1451749   1.3345476  )
        95        S      tau(  95) = (   0.8537356   0.6883387   1.3345674  )
        96        H      tau(  96) = (   0.3974388   0.5839430   0.6936492  )

   Crystallographic axes

     site n.     atom                  positions (cryst. coord.)
         1        Fe     tau(   1) = (  0.0006267  0.0001837  0.0002262  )
         2        Fe     tau(   2) = (  0.2512068  0.2498815  0.1250991  )
         3        S      tau(   3) = (  0.1050656  0.1875040 -0.0000197  )
         4        S      tau(   4) = (  0.3968764  0.3126914  0.0000800  )
         5        S      tau(   5) = (  0.1471990  0.4369066  0.1250469  )
         6        S      tau(   6) = (  0.3545783  0.0624752  0.1252036  )
         7        Fe     tau(   7) = (  0.0008315 -0.0008370  0.2501378  )
         8        Fe     tau(   8) = (  0.2491676  0.2484086  0.3744021  )
         9        S      tau(   9) = (  0.1036592  0.1860701  0.2490221  )
        10        S      tau(  10) = (  0.3980949  0.3109931  0.2502562  )
        11        S      tau(  11) = (  0.1422325  0.4357825  0.3737972  )
        12        S      tau(  12) = (  0.3543062  0.0616436  0.3749325  )
        13        Fe     tau(  13) = (  0.0008126 -0.0003879  0.5002967  )
        14        Fe     tau(  14) = (  0.2501454  0.2502848  0.6255033  )
        15        S      tau(  15) = (  0.1032046  0.1869606  0.5003162  )
        16        S      tau(  16) = (  0.3920032  0.3082316  0.4994042  )
        17        S      tau(  17) = (  0.1469946  0.4398892  0.6265417  )
        18        S      tau(  18) = (  0.3542334  0.0633004  0.6254006  )
        19        Fe     tau(  19) = (  0.0007261  0.0007753  0.7503705  )
        20        Fe     tau(  20) = (  0.2512451  0.2506463  0.8748357  )
        21        S      tau(  21) = (  0.1041045  0.1874732  0.7506679  )
        22        S      tau(  22) = (  0.3975662  0.3127602  0.7493434  )
        23        S      tau(  23) = (  0.1472441  0.4374223  0.8751614  )
        24        S      tau(  24) = (  0.3546557  0.0633216  0.8753607  )
        25        Fe     tau(  25) = (  0.0007122  0.5002256  0.0002201  )
        26        Fe     tau(  26) = (  0.2507193  0.7499191  0.1256233  )
        27        S      tau(  27) = (  0.1044934  0.6875494  0.0005446  )
        28        S      tau(  28) = (  0.3966148  0.8130331  0.0006110  )
        29        S      tau(  29) = (  0.1467572  0.9370849  0.1250260  )
        30        S      tau(  30) = (  0.3543514  0.5626044  0.1255863  )
        31        Fe     tau(  31) = (  0.0008212  0.4997227  0.2489989  )
        32        Fe     tau(  32) = (  0.2509913  0.7484366  0.3765465  )
        33        S      tau(  33) = (  0.1039275  0.6869856  0.2502603  )
        34        S      tau(  34) = (  0.3964656  0.8120439  0.2506217  )
        35        S      tau(  35) = (  0.1469504  0.9360951  0.3753641  )
        36        S      tau(  36) = (  0.3484462  0.5582845  0.3717577  )
        37        Fe     tau(  37) = (  0.0001691  0.4997849  0.5003265  )
        38        Fe     tau(  38) = (  0.2485153  0.7511551  0.6273671  )
        39        S      tau(  39) = (  0.1030767  0.6876155  0.5011725  )
        40        S      tau(  40) = (  0.4002966  0.8122015  0.5017149  )
        41        S      tau(  41) = (  0.1464934  0.9381958  0.6254445  )
        42        S      tau(  42) = (  0.3454864  0.5655137  0.6302730  )
        43        Fe     tau(  43) = (  0.0003342  0.5008042  0.7519229  )
        44        Fe     tau(  44) = (  0.2506176  0.7506697  0.8756549  )
        45        S      tau(  45) = (  0.1020604  0.6890377  0.7516068  )
        46        S      tau(  46) = (  0.3958776  0.8140320  0.7509735  )
        47        S      tau(  47) = (  0.1467225  0.9379581  0.8756090  )
        48        S      tau(  48) = (  0.3542151  0.5634663  0.8757052  )
        49        Fe     tau(  49) = (  0.5006423  0.0002096  0.0002655  )
        50        Fe     tau(  50) = (  0.7506965  0.2498040  0.1249273  )
        51        S      tau(  51) = (  0.6045941  0.1874496  0.0000513  )
        52        S      tau(  52) = (  0.8967539  0.3128302  0.0001070  )
        53        S      tau(  53) = (  0.6471371  0.4370526  0.1249239  )
        54        S      tau(  54) = (  0.8545346  0.0623777  0.1250079  )
        55        Fe     tau(  55) = (  0.5005773 -0.0004277  0.2502040  )
        56        Fe     tau(  56) = (  0.7531447  0.2493246  0.3739532  )
        57        S      tau(  57) = (  0.6052141  0.1865279  0.2498150  )
        58        S      tau(  58) = (  0.8983452  0.3112831  0.2487179  )
        59        S      tau(  59) = (  0.6558790  0.4356573  0.3710083  )
        60        S      tau(  60) = (  0.8549629  0.0619984  0.3750744  )
        61        Fe     tau(  61) = (  0.5007474  0.0016860  0.5003385  )
        62        Fe     tau(  62) = (  0.7523910  0.2506623  0.6261099  )
        63        S      tau(  63) = (  0.6043125  0.1891845  0.4997092  )
        64        S      tau(  64) = (  0.8979594  0.3122832  0.5001106  )
        65        S      tau(  65) = (  0.6558121  0.4363002  0.6299133  )
        66        S      tau(  66) = (  0.8547150  0.0628736  0.6252926  )
        67        Fe     tau(  67) = (  0.5005190  0.0008984  0.7504207  )
        68        Fe     tau(  68) = (  0.7506253  0.2504327  0.8749944  )
        69        S      tau(  69) = (  0.6048786  0.1876529  0.7503589  )
        70        S      tau(  70) = (  0.8989571  0.3125582  0.7512584  )
        71        S      tau(  71) = (  0.6470578  0.4376308  0.8754945  )
        72        S      tau(  72) = (  0.8545717  0.0631398  0.8755004  )
        73        Fe     tau(  73) = (  0.5007801  0.5002478  0.0001588  )
        74        Fe     tau(  74) = (  0.7502592  0.7499090  0.1257322  )
        75        S      tau(  75) = (  0.6043828  0.6878835  0.0003940  )
        76        S      tau(  76) = (  0.8961830  0.8130013  0.0003953  )
        77        S      tau(  77) = (  0.6466364  0.9371998  0.1252862  )
        78        S      tau(  78) = (  0.8541473  0.5631501  0.1252728  )
        79        Fe     tau(  79) = (  0.5018099  0.4989287  0.2521156  )
        80        Fe     tau(  80) = (  0.7495760  0.7507750  0.3752159  )
        81        S      tau(  81) = (  0.6037122  0.6874743  0.2508010  )
        82        S      tau(  82) = (  0.8970609  0.8128990  0.2503339  )
        83        S      tau(  83) = (  0.6468715  0.9381030  0.3750759  )
        84        S      tau(  84) = (  0.8521320  0.5607717  0.3747297  )
        85        Fe     tau(  85) = (  0.7497415  0.7514781  0.6257092  )
        86        S      tau(  86) = (  0.6044448  0.6927586  0.5010839  )
        87        S      tau(  87) = (  0.8966060  0.8126094  0.5003219  )
        88        S      tau(  88) = (  0.6470016  0.9389628  0.6256198  )
        89        S      tau(  89) = (  0.8527791  0.5614819  0.6262824  )
        90        Fe     tau(  90) = (  0.5006879  0.5006768  0.7468716  )
        91        Fe     tau(  91) = (  0.7498144  0.7505374  0.8751720  )
        92        S      tau(  92) = (  0.6031718  0.6889914  0.7496489  )
        93        S      tau(  93) = (  0.8972094  0.8139893  0.7509147  )
        94        S      tau(  94) = (  0.6465584  0.9378824  0.8753167  )
        95        S      tau(  95) = (  0.8537356  0.5637399  0.8753296  )
        96        H      tau(  96) = (  0.3974388  0.4782413  0.4549577  )

     number of k points=     8  Marzari-Vanderbilt smearing, width (Ry)=  0.0150
                       cart. coord. in units 2pi/alat
        k(    1) = (   0.0000000   0.0000000   0.0000000), wk =   0.0833333
        k(    2) = (   0.0000000   0.0000000   0.2186301), wk =   0.1666667
        k(    3) = (   0.0000000  -0.4094931   0.0000000), wk =   0.0833333
        k(    4) = (   0.0000000  -0.4094931   0.2186301), wk =   0.1666667
        k(    5) = (  -0.5000000   0.0000000   0.0000000), wk =   0.0833333
        k(    6) = (  -0.5000000   0.0000000   0.2186301), wk =   0.1666667
        k(    7) = (  -0.5000000  -0.4094931   0.0000000), wk =   0.0833333
        k(    8) = (  -0.5000000  -0.4094931   0.2186301), wk =   0.1666667

                       cryst. coord.
        k(    1) = (   0.0000000   0.0000000   0.0000000), wk =   0.0833333
        k(    2) = (   0.0000000   0.0000000   0.3333333), wk =   0.1666667
        k(    3) = (   0.0000000  -0.5000000   0.0000000), wk =   0.0833333
        k(    4) = (   0.0000000  -0.5000000   0.3333333), wk =   0.1666667
        k(    5) = (  -0.5000000   0.0000000   0.0000000), wk =   0.0833333
        k(    6) = (  -0.5000000   0.0000000   0.3333333), wk =   0.1666667
        k(    7) = (  -0.5000000  -0.5000000   0.0000000), wk =   0.0833333
        k(    8) = (  -0.5000000  -0.5000000   0.3333333), wk =   0.1666667

     Dense  grid:   553421 G-vectors     FFT dimensions: (  90, 108, 128)

     Dynamical RAM for                 wfc:     558.42 MB

     Dynamical RAM for     wfc (w. buffer):     558.42 MB

     Dynamical RAM for           str. fact:      25.33 MB

     Dynamical RAM for           local pot:       0.00 MB

     Dynamical RAM for          nlocal pot:    1810.39 MB

     Dynamical RAM for                qrad:       3.73 MB

     Dynamical RAM for          rho,v,vnew:     107.62 MB

     Dynamical RAM for               rhoin:      35.87 MB

     Dynamical RAM for           G-vectors:      35.89 MB

     Dynamical RAM for          h,s,v(r/c):      51.24 MB

     Dynamical RAM for          <psi|beta>:      13.84 MB

     Dynamical RAM for                 psi:    1116.84 MB

     Dynamical RAM for                hpsi:    1116.84 MB

     Dynamical RAM for      wfcinit/wfcrot:    1123.25 MB

     Estimated static dynamical RAM per process >       2.61 GB

     Estimated max dynamical RAM per process >       4.85 GB
     Generating pointlists ...
     new r_m :   0.1017 (alat units)  1.7071 (a.u.) for type    1
     new r_m :   0.0691 (alat units)  1.1600 (a.u.) for type    2
     new r_m :   0.0691 (alat units)  1.1600 (a.u.) for type    3

     Initial potential from superposition of free atoms

     starting charge     880.9860, renormalised to     881.0000
     Starting wfcs are  567 randomized atomic wfcs

     total cpu time spent up to now is       14.1 secs

     per-process dynamical memory:  1150.2 Mb

     Self-consistent Calculation
[tb_dev] Currently allocated     3.10E+01 Mbytes, locked:    0 /   3
[tb_pin] Currently allocated     0.00E+00 Mbytes, locked:    0 /   0

     iteration #  1     ecut=    60.00 Ry     beta= 0.20
     Davidson diagonalization with overlap

---- Real-time Memory Report at c_bands before calling an iterative solver
          3224 MiB given to the printing process from OS
          1157 MiB allocation reported by mallinfo(arena+hblkhd)
        256420 MiB available memory on the node where the printing process lives
     GPU memory used/free/total (MiB): 5716 / 34725 / 40442
------------------
     ethr =  1.00E-02,  avg # of iterations =  2.0

     total cpu time spent up to now is       38.6 secs

     total energy              =   -9183.18500864 Ry
     estimated scf accuracy    <      16.58271342 Ry

     total magnetization       =     1.58 Bohr mag/cell
     absolute magnetization    =    13.17 Bohr mag/cell
[tb_dev] Currently allocated     0.00E+00 Mbytes, locked:    0 /   0
[tb_pin] Currently allocated     0.00E+00 Mbytes, locked:    0 /   0

     iteration #  2     ecut=    60.00 Ry     beta= 0.20
     Davidson diagonalization with overlap

---- Real-time Memory Report at c_bands before calling an iterative solver
          3258 MiB given to the printing process from OS
          1157 MiB allocation reported by mallinfo(arena+hblkhd)
        256041 MiB available memory on the node where the printing process lives
     GPU memory used/free/total (MiB): 8500 / 31941 / 40442
------------------
     ethr =  1.88E-03,  avg # of iterations =  2.0

     total cpu time spent up to now is       60.8 secs

     total energy              =   -9183.32737279 Ry
     estimated scf accuracy    <       5.84961893 Ry

     total magnetization       =     1.21 Bohr mag/cell
     absolute magnetization    =    12.44 Bohr mag/cell
[tb_dev] Currently allocated     0.00E+00 Mbytes, locked:    0 /   0
[tb_pin] Currently allocated     0.00E+00 Mbytes, locked:    0 /   0

     iteration #  3     ecut=    60.00 Ry     beta= 0.20
     Davidson diagonalization with overlap

---- Real-time Memory Report at c_bands before calling an iterative solver
          3318 MiB given to the printing process from OS
          1229 MiB allocation reported by mallinfo(arena+hblkhd)
        255700 MiB available memory on the node where the printing process lives
     GPU memory used/free/total (MiB): 8506 / 31935 / 40442
------------------
     ethr =  6.64E-04,  avg # of iterations =  2.1

     total cpu time spent up to now is       83.1 secs

     total energy              =   -9183.34026822 Ry
     estimated scf accuracy    <       1.62137558 Ry

     total magnetization       =     1.25 Bohr mag/cell
     absolute magnetization    =    10.24 Bohr mag/cell
[tb_dev] Currently allocated     0.00E+00 Mbytes, locked:    0 /   0
[tb_pin] Currently allocated     0.00E+00 Mbytes, locked:    0 /   0

     iteration #  4     ecut=    60.00 Ry     beta= 0.20
     Davidson diagonalization with overlap

---- Real-time Memory Report at c_bands before calling an iterative solver
          3343 MiB given to the printing process from OS
          1229 MiB allocation reported by mallinfo(arena+hblkhd)
        255541 MiB available memory on the node where the printing process lives
     GPU memory used/free/total (MiB): 8506 / 31935 / 40442
------------------
     ethr =  1.84E-04,  avg # of iterations =  4.2
     Minimization algorithm failed to find Fermi energy: reverting to bisection
     Possible cause: smearing is larger than the electronic band-gap.

     total cpu time spent up to now is      105.4 secs

     total energy              =   -9183.47424416 Ry
     estimated scf accuracy    <       0.18109675 Ry

     total magnetization       =     1.72 Bohr mag/cell
     absolute magnetization    =     6.10 Bohr mag/cell
[tb_dev] Currently allocated     0.00E+00 Mbytes, locked:    0 /   0
[tb_pin] Currently allocated     0.00E+00 Mbytes, locked:    0 /   0

     iteration #  5     ecut=    60.00 Ry     beta= 0.20
     Davidson diagonalization with overlap

---- Real-time Memory Report at c_bands before calling an iterative solver
          3400 MiB given to the printing process from OS
          1229 MiB allocation reported by mallinfo(arena+hblkhd)
        261122 MiB available memory on the node where the printing process lives
     GPU memory used/free/total (MiB): 8506 / 31935 / 40442
------------------
     ethr =  2.06E-05,  avg # of iterations =  8.6
     Minimization algorithm failed to find Fermi energy: reverting to bisection
     Possible cause: smearing is larger than the electronic band-gap.

     total cpu time spent up to now is      134.2 secs

     total energy              =   -9183.50056218 Ry
     estimated scf accuracy    <       0.05582950 Ry

     total magnetization       =     1.49 Bohr mag/cell
     absolute magnetization    =     4.74 Bohr mag/cell
[tb_dev] Currently allocated     0.00E+00 Mbytes, locked:    0 /   0
[tb_pin] Currently allocated     0.00E+00 Mbytes, locked:    0 /   0

     iteration #  6     ecut=    60.00 Ry     beta= 0.20
     Davidson diagonalization with overlap

---- Real-time Memory Report at c_bands before calling an iterative solver
          3434 MiB given to the printing process from OS
          1229 MiB allocation reported by mallinfo(arena+hblkhd)
        261157 MiB available memory on the node where the printing process lives
     GPU memory used/free/total (MiB): 8508 / 31933 / 40442
------------------
     ethr =  6.34E-06,  avg # of iterations =  2.0

     total cpu time spent up to now is      155.8 secs

     total energy              =   -9183.50642743 Ry
     estimated scf accuracy    <       0.02255440 Ry

     total magnetization       =     1.37 Bohr mag/cell
     absolute magnetization    =     3.89 Bohr mag/cell
[tb_dev] Currently allocated     0.00E+00 Mbytes, locked:    0 /   0
[tb_pin] Currently allocated     0.00E+00 Mbytes, locked:    0 /   0

     iteration #  7     ecut=    60.00 Ry     beta= 0.20
     Davidson diagonalization with overlap

---- Real-time Memory Report at c_bands before calling an iterative solver
          3468 MiB given to the printing process from OS
          1229 MiB allocation reported by mallinfo(arena+hblkhd)
        261200 MiB available memory on the node where the printing process lives
     GPU memory used/free/total (MiB): 8508 / 31933 / 40442
------------------
     ethr =  2.56E-06,  avg # of iterations =  1.6
     Minimization algorithm failed to find Fermi energy: reverting to bisection
     Possible cause: smearing is larger than the electronic band-gap.

     total cpu time spent up to now is      176.5 secs

     total energy              =   -9183.50742241 Ry
     estimated scf accuracy    <       0.00810205 Ry

     total magnetization       =     1.28 Bohr mag/cell
     absolute magnetization    =     3.12 Bohr mag/cell
[tb_dev] Currently allocated     0.00E+00 Mbytes, locked:    0 /   0
[tb_pin] Currently allocated     0.00E+00 Mbytes, locked:    0 /   0

     iteration #  8     ecut=    60.00 Ry     beta= 0.20
     Davidson diagonalization with overlap

---- Real-time Memory Report at c_bands before calling an iterative solver
          3502 MiB given to the printing process from OS
          1229 MiB allocation reported by mallinfo(arena+hblkhd)
        260730 MiB available memory on the node where the printing process lives
     GPU memory used/free/total (MiB): 8508 / 31933 / 40442
------------------
     ethr =  9.20E-07,  avg # of iterations =  2.9

     total cpu time spent up to now is      199.8 secs

     total energy              =   -9183.50896819 Ry
     estimated scf accuracy    <       0.00080041 Ry

     total magnetization       =     1.25 Bohr mag/cell
     absolute magnetization    =     2.28 Bohr mag/cell
[tb_dev] Currently allocated     0.00E+00 Mbytes, locked:    0 /   0
[tb_pin] Currently allocated     0.00E+00 Mbytes, locked:    0 /   0

     iteration #  9     ecut=    60.00 Ry     beta= 0.20
     Davidson diagonalization with overlap

---- Real-time Memory Report at c_bands before calling an iterative solver
          3536 MiB given to the printing process from OS
          1229 MiB allocation reported by mallinfo(arena+hblkhd)
        260686 MiB available memory on the node where the printing process lives
     GPU memory used/free/total (MiB): 8520 / 31921 / 40442
------------------
     ethr =  9.09E-08,  avg # of iterations =  5.0
     Minimization algorithm failed to find Fermi energy: reverting to bisection
     Possible cause: smearing is larger than the electronic band-gap.

     total cpu time spent up to now is      225.2 secs

     total energy              =   -9183.50922327 Ry
     estimated scf accuracy    <       0.00070210 Ry

     total magnetization       =     1.20 Bohr mag/cell
     absolute magnetization    =     2.00 Bohr mag/cell
[tb_dev] Currently allocated     0.00E+00 Mbytes, locked:    0 /   0
[tb_pin] Currently allocated     0.00E+00 Mbytes, locked:    0 /   0

     iteration # 10     ecut=    60.00 Ry     beta= 0.20
     Davidson diagonalization with overlap

---- Real-time Memory Report at c_bands before calling an iterative solver
          3569 MiB given to the printing process from OS
          1229 MiB allocation reported by mallinfo(arena+hblkhd)
        260480 MiB available memory on the node where the printing process lives
     GPU memory used/free/total (MiB): 8532 / 31909 / 40442
------------------
     ethr =  7.97E-08,  avg # of iterations =  1.6
     Minimization algorithm failed to find Fermi energy: reverting to bisection
     Possible cause: smearing is larger than the electronic band-gap.

     total cpu time spent up to now is      246.1 secs

     total energy              =   -9183.50934269 Ry
     estimated scf accuracy    <       0.00030515 Ry

     total magnetization       =     1.13 Bohr mag/cell
     absolute magnetization    =     1.85 Bohr mag/cell
[tb_dev] Currently allocated     0.00E+00 Mbytes, locked:    0 /   0
[tb_pin] Currently allocated     0.00E+00 Mbytes, locked:    0 /   0

     iteration # 11     ecut=    60.00 Ry     beta= 0.20
     Davidson diagonalization with overlap

---- Real-time Memory Report at c_bands before calling an iterative solver
          3603 MiB given to the printing process from OS
          1229 MiB allocation reported by mallinfo(arena+hblkhd)
        260497 MiB available memory on the node where the printing process lives
     GPU memory used/free/total (MiB): 8532 / 31909 / 40442
------------------
     ethr =  3.46E-08,  avg # of iterations =  4.4

     total cpu time spent up to now is      270.2 secs

     total energy              =   -9183.50947594 Ry
     estimated scf accuracy    <       0.00010304 Ry

     total magnetization       =     1.02 Bohr mag/cell
     absolute magnetization    =     1.56 Bohr mag/cell
[tb_dev] Currently allocated     0.00E+00 Mbytes, locked:    0 /   0
[tb_pin] Currently allocated     0.00E+00 Mbytes, locked:    0 /   0

     iteration # 12     ecut=    60.00 Ry     beta= 0.20
     Davidson diagonalization with overlap

---- Real-time Memory Report at c_bands before calling an iterative solver
          3637 MiB given to the printing process from OS
          1229 MiB allocation reported by mallinfo(arena+hblkhd)
        260025 MiB available memory on the node where the printing process lives
     GPU memory used/free/total (MiB): 8532 / 31909 / 40442
------------------
     ethr =  1.17E-08,  avg # of iterations =  2.5

     total cpu time spent up to now is      292.2 secs

     total energy              =   -9183.50950697 Ry
     estimated scf accuracy    <       0.00006832 Ry

     total magnetization       =     0.97 Bohr mag/cell
     absolute magnetization    =     1.48 Bohr mag/cell
[tb_dev] Currently allocated     0.00E+00 Mbytes, locked:    0 /   0
[tb_pin] Currently allocated     0.00E+00 Mbytes, locked:    0 /   0

     iteration # 13     ecut=    60.00 Ry     beta= 0.20
     Davidson diagonalization with overlap

---- Real-time Memory Report at c_bands before calling an iterative solver
          3671 MiB given to the printing process from OS
          1229 MiB allocation reported by mallinfo(arena+hblkhd)
        260029 MiB available memory on the node where the printing process lives
     GPU memory used/free/total (MiB): 8532 / 31909 / 40442
------------------
     ethr =  7.76E-09,  avg # of iterations =  3.6

     total cpu time spent up to now is      315.2 secs

     total energy              =   -9183.50953885 Ry
     estimated scf accuracy    <       0.00002265 Ry

     total magnetization       =     0.91 Bohr mag/cell
     absolute magnetization    =     1.39 Bohr mag/cell
[tb_dev] Currently allocated     0.00E+00 Mbytes, locked:    0 /   0
[tb_pin] Currently allocated     0.00E+00 Mbytes, locked:    0 /   0

     iteration # 14     ecut=    60.00 Ry     beta= 0.20
     Davidson diagonalization with overlap

---- Real-time Memory Report at c_bands before calling an iterative solver
          3705 MiB given to the printing process from OS
          1229 MiB allocation reported by mallinfo(arena+hblkhd)
        259951 MiB available memory on the node where the printing process lives
     GPU memory used/free/total (MiB): 8532 / 31909 / 40442
------------------
     ethr =  2.57E-09,  avg # of iterations =  5.0

     total cpu time spent up to now is      341.3 secs

     total energy              =   -9183.50956510 Ry
     estimated scf accuracy    <       0.00001490 Ry

     total magnetization       =     0.84 Bohr mag/cell
     absolute magnetization    =     1.30 Bohr mag/cell
[tb_dev] Currently allocated     0.00E+00 Mbytes, locked:    0 /   0
[tb_pin] Currently allocated     0.00E+00 Mbytes, locked:    0 /   0

     iteration # 15     ecut=    60.00 Ry     beta= 0.20
     Davidson diagonalization with overlap

---- Real-time Memory Report at c_bands before calling an iterative solver
          3705 MiB given to the printing process from OS
          1229 MiB allocation reported by mallinfo(arena+hblkhd)
        259543 MiB available memory on the node where the printing process lives
     GPU memory used/free/total (MiB): 8532 / 31909 / 40442
------------------
     ethr =  1.69E-09,  avg # of iterations =  2.0

     total cpu time spent up to now is      362.8 secs

     total energy              =   -9183.50956437 Ry
     estimated scf accuracy    <       0.00001147 Ry

     total magnetization       =     0.82 Bohr mag/cell
     absolute magnetization    =     1.28 Bohr mag/cell
[tb_dev] Currently allocated     0.00E+00 Mbytes, locked:    0 /   0
[tb_pin] Currently allocated     0.00E+00 Mbytes, locked:    0 /   0

     iteration # 16     ecut=    60.00 Ry     beta= 0.20
     Davidson diagonalization with overlap

---- Real-time Memory Report at c_bands before calling an iterative solver
          3705 MiB given to the printing process from OS
          1229 MiB allocation reported by mallinfo(arena+hblkhd)
        259572 MiB available memory on the node where the printing process lives
     GPU memory used/free/total (MiB): 8532 / 31909 / 40442
------------------
     ethr =  1.30E-09,  avg # of iterations =  5.0

     total cpu time spent up to now is      389.2 secs

     total energy              =   -9183.50958747 Ry
     estimated scf accuracy    <       0.00000432 Ry

     total magnetization       =     0.75 Bohr mag/cell
     absolute magnetization    =     1.21 Bohr mag/cell
[tb_dev] Currently allocated     0.00E+00 Mbytes, locked:    0 /   0
[tb_pin] Currently allocated     0.00E+00 Mbytes, locked:    0 /   0

     iteration # 17     ecut=    60.00 Ry     beta= 0.20
     Davidson diagonalization with overlap

---- Real-time Memory Report at c_bands before calling an iterative solver
          3705 MiB given to the printing process from OS
          1229 MiB allocation reported by mallinfo(arena+hblkhd)
        259503 MiB available memory on the node where the printing process lives
     GPU memory used/free/total (MiB): 8532 / 31909 / 40442
------------------
     ethr =  4.91E-10,  avg # of iterations =  3.2

     total cpu time spent up to now is      412.4 secs

     total energy              =   -9183.50959079 Ry
     estimated scf accuracy    <       0.00000292 Ry

     total magnetization       =     0.74 Bohr mag/cell
     absolute magnetization    =     1.19 Bohr mag/cell
[tb_dev] Currently allocated     0.00E+00 Mbytes, locked:    0 /   0
[tb_pin] Currently allocated     0.00E+00 Mbytes, locked:    0 /   0

     iteration # 18     ecut=    60.00 Ry     beta= 0.20
     Davidson diagonalization with overlap

---- Real-time Memory Report at c_bands before calling an iterative solver
          3705 MiB given to the printing process from OS
          1229 MiB allocation reported by mallinfo(arena+hblkhd)
        259144 MiB available memory on the node where the printing process lives
     GPU memory used/free/total (MiB): 8532 / 31909 / 40442
------------------
     ethr =  3.31E-10,  avg # of iterations =  4.9

     total cpu time spent up to now is      436.0 secs

     total energy              =   -9183.50959057 Ry
     estimated scf accuracy    <       0.00000175 Ry

     total magnetization       =     0.72 Bohr mag/cell
     absolute magnetization    =     1.17 Bohr mag/cell
[tb_dev] Currently allocated     0.00E+00 Mbytes, locked:    0 /   0
[tb_pin] Currently allocated     0.00E+00 Mbytes, locked:    0 /   0

     iteration # 19     ecut=    60.00 Ry     beta= 0.20
     Davidson diagonalization with overlap

---- Real-time Memory Report at c_bands before calling an iterative solver
          3705 MiB given to the printing process from OS
          1229 MiB allocation reported by mallinfo(arena+hblkhd)
        259062 MiB available memory on the node where the printing process lives
     GPU memory used/free/total (MiB): 8532 / 31909 / 40442
------------------
     ethr =  1.99E-10,  avg # of iterations =  5.0

     total cpu time spent up to now is      463.8 secs

     total energy              =   -9183.50959703 Ry
     estimated scf accuracy    <       0.00000073 Ry

     total magnetization       =     0.69 Bohr mag/cell
     absolute magnetization    =     1.14 Bohr mag/cell
[tb_dev] Currently allocated     0.00E+00 Mbytes, locked:    0 /   0
[tb_pin] Currently allocated     0.00E+00 Mbytes, locked:    0 /   0

     iteration # 20     ecut=    60.00 Ry     beta= 0.20
     Davidson diagonalization with overlap

---- Real-time Memory Report at c_bands before calling an iterative solver
          3705 MiB given to the printing process from OS
          1229 MiB allocation reported by mallinfo(arena+hblkhd)
        258608 MiB available memory on the node where the printing process lives
     GPU memory used/free/total (MiB): 8532 / 31909 / 40442
------------------
     ethr =  8.23E-11,  avg # of iterations =  4.5

     total cpu time spent up to now is      487.9 secs

     total energy              =   -9183.50959760 Ry
     estimated scf accuracy    <       0.00000051 Ry

     total magnetization       =     0.68 Bohr mag/cell
     absolute magnetization    =     1.12 Bohr mag/cell
[tb_dev] Currently allocated     0.00E+00 Mbytes, locked:    0 /   0
[tb_pin] Currently allocated     0.00E+00 Mbytes, locked:    0 /   0

     iteration # 21     ecut=    60.00 Ry     beta= 0.20
     Davidson diagonalization with overlap

---- Real-time Memory Report at c_bands before calling an iterative solver
          3705 MiB given to the printing process from OS
          1229 MiB allocation reported by mallinfo(arena+hblkhd)
        258631 MiB available memory on the node where the printing process lives
     GPU memory used/free/total (MiB): 8532 / 31909 / 40442
------------------
     ethr =  5.79E-11,  avg # of iterations =  5.0

     total cpu time spent up to now is      513.9 secs

     total energy              =   -9183.50959809 Ry
     estimated scf accuracy    <       0.00000033 Ry

     total magnetization       =     0.67 Bohr mag/cell
     absolute magnetization    =     1.11 Bohr mag/cell
[tb_dev] Currently allocated     0.00E+00 Mbytes, locked:    0 /   0
[tb_pin] Currently allocated     0.00E+00 Mbytes, locked:    0 /   0

     iteration # 22     ecut=    60.00 Ry     beta= 0.20
     Davidson diagonalization with overlap

---- Real-time Memory Report at c_bands before calling an iterative solver
          3705 MiB given to the printing process from OS
          1229 MiB allocation reported by mallinfo(arena+hblkhd)
        257925 MiB available memory on the node where the printing process lives
     GPU memory used/free/total (MiB): 8532 / 31909 / 40442
------------------
     ethr =  3.70E-11,  avg # of iterations =  5.1

     total cpu time spent up to now is      541.2 secs

     total energy              =   -9183.50959930 Ry
     estimated scf accuracy    <       0.00000014 Ry

     total magnetization       =     0.66 Bohr mag/cell
     absolute magnetization    =     1.09 Bohr mag/cell
[tb_dev] Currently allocated     0.00E+00 Mbytes, locked:    0 /   0
[tb_pin] Currently allocated     0.00E+00 Mbytes, locked:    0 /   0

     iteration # 23     ecut=    60.00 Ry     beta= 0.20
     Davidson diagonalization with overlap

---- Real-time Memory Report at c_bands before calling an iterative solver
          3705 MiB given to the printing process from OS
          1229 MiB allocation reported by mallinfo(arena+hblkhd)
        258269 MiB available memory on the node where the printing process lives
     GPU memory used/free/total (MiB): 8532 / 31909 / 40442
------------------
     ethr =  1.64E-11,  avg # of iterations =  4.8
 
     Magnetic moment per site  (integrated on atomic sphere of radius R)
     atom   1 (R=0.102)  charge= 13.8744  magn= -0.0010
     atom   2 (R=0.102)  charge= 13.8740  magn= -0.0023
     atom   3 (R=0.069)  charge=  1.2586  magn= -0.0000
     atom   4 (R=0.069)  charge=  1.2589  magn=  0.0001
     atom   5 (R=0.069)  charge=  1.2590  magn=  0.0003
     atom   6 (R=0.069)  charge=  1.2593  magn= -0.0000
     atom   7 (R=0.102)  charge= 13.8761  magn=  0.0016
     atom   8 (R=0.102)  charge= 13.8720  magn=  0.0122
     atom   9 (R=0.069)  charge=  1.2601  magn= -0.0001
     atom  10 (R=0.069)  charge=  1.2595  magn= -0.0005
     atom  11 (R=0.069)  charge=  1.2603  magn= -0.0004
     atom  12 (R=0.069)  charge=  1.2597  magn= -0.0001
     atom  13 (R=0.102)  charge= 13.8768  magn=  0.0053
     atom  14 (R=0.102)  charge= 13.8714  magn=  0.0013
     atom  15 (R=0.069)  charge=  1.2588  magn= -0.0004
     atom  16 (R=0.069)  charge=  1.2628  magn=  0.0026
     atom  17 (R=0.069)  charge=  1.2585  magn= -0.0007
     atom  18 (R=0.069)  charge=  1.2594  magn= -0.0001
     atom  19 (R=0.102)  charge= 13.8771  magn=  0.0052
     atom  20 (R=0.102)  charge= 13.8738  magn= -0.0031
     atom  21 (R=0.069)  charge=  1.2598  magn= -0.0003
     atom  22 (R=0.069)  charge=  1.2592  magn= -0.0016
     atom  23 (R=0.069)  charge=  1.2591  magn= -0.0000
     atom  24 (R=0.069)  charge=  1.2592  magn= -0.0000
     atom  25 (R=0.102)  charge= 13.8709  magn=  0.0074
     atom  26 (R=0.102)  charge= 13.8740  magn=  0.0039
     atom  27 (R=0.069)  charge=  1.2587  magn= -0.0000
     atom  28 (R=0.069)  charge=  1.2589  magn=  0.0001
     atom  29 (R=0.069)  charge=  1.2593  magn=  0.0001
     atom  30 (R=0.069)  charge=  1.2585  magn= -0.0002
     atom  31 (R=0.102)  charge= 13.8798  magn=  0.0085
     atom  32 (R=0.102)  charge= 13.8654  magn= -0.0022
     atom  33 (R=0.069)  charge=  1.2587  magn=  0.0001
     atom  34 (R=0.069)  charge=  1.2588  magn= -0.0001
     atom  35 (R=0.069)  charge=  1.2584  magn=  0.0002
     atom  36 (R=0.069)  charge=  1.2629  magn= -0.0001
     atom  37 (R=0.102)  charge= 13.8709  magn=  0.0014
     atom  38 (R=0.102)  charge= 13.8764  magn=  0.0305
     atom  39 (R=0.069)  charge=  1.2591  magn=  0.0000
     atom  40 (R=0.069)  charge=  1.2577  magn=  0.0001
     atom  41 (R=0.069)  charge=  1.2604  magn=  0.0002
     atom  42 (R=0.069)  charge=  1.2644  magn=  0.0093
     atom  43 (R=0.102)  charge= 13.8790  magn=  0.0296
     atom  44 (R=0.102)  charge= 13.8757  magn= -0.0066
     atom  45 (R=0.069)  charge=  1.2604  magn=  0.0001
     atom  46 (R=0.069)  charge=  1.2591  magn= -0.0009
     atom  47 (R=0.069)  charge=  1.2595  magn=  0.0002
     atom  48 (R=0.069)  charge=  1.2581  magn= -0.0009
     atom  49 (R=0.102)  charge= 13.8743  magn=  0.0038
     atom  50 (R=0.102)  charge= 13.8764  magn=  0.0025
     atom  51 (R=0.069)  charge=  1.2590  magn=  0.0001
     atom  52 (R=0.069)  charge=  1.2588  magn=  0.0000
     atom  53 (R=0.069)  charge=  1.2585  magn= -0.0001
     atom  54 (R=0.069)  charge=  1.2591  magn=  0.0001
     atom  55 (R=0.102)  charge= 13.8751  magn= -0.0026
     atom  56 (R=0.102)  charge= 13.8751  magn=  0.0342
     atom  57 (R=0.069)  charge=  1.2590  magn= -0.0003
     atom  58 (R=0.069)  charge=  1.2605  magn=  0.0000
     atom  59 (R=0.069)  charge=  1.2647  magn=  0.0066
     atom  60 (R=0.069)  charge=  1.2599  magn=  0.0002
     atom  61 (R=0.102)  charge= 13.8703  magn=  0.0055
     atom  62 (R=0.102)  charge= 13.8731  magn=  0.0544
     atom  63 (R=0.069)  charge=  1.2562  magn=  0.0000
     atom  64 (R=0.069)  charge=  1.2594  magn= -0.0001
     atom  65 (R=0.069)  charge=  1.2635  magn=  0.0140
     atom  66 (R=0.069)  charge=  1.2596  magn=  0.0001
     atom  67 (R=0.102)  charge= 13.8756  magn= -0.0061
     atom  68 (R=0.102)  charge= 13.8754  magn= -0.0050
     atom  69 (R=0.069)  charge=  1.2590  magn= -0.0010
     atom  70 (R=0.069)  charge=  1.2598  magn=  0.0001
     atom  71 (R=0.069)  charge=  1.2585  magn= -0.0008
     atom  72 (R=0.069)  charge=  1.2591  magn=  0.0001
     atom  73 (R=0.102)  charge= 13.8710  magn= -0.0260
     atom  74 (R=0.102)  charge= 13.8730  magn= -0.0076
     atom  75 (R=0.069)  charge=  1.2588  magn=  0.0001
     atom  76 (R=0.069)  charge=  1.2582  magn= -0.0001
     atom  77 (R=0.069)  charge=  1.2593  magn=  0.0000
     atom  78 (R=0.069)  charge=  1.2593  magn= -0.0001
     atom  79 (R=0.102)  charge= 13.8636  magn=  0.0729
     atom  80 (R=0.102)  charge= 13.8683  magn= -0.0008
     atom  81 (R=0.069)  charge=  1.2591  magn= -0.0005
     atom  82 (R=0.069)  charge=  1.2596  magn= -0.0002
     atom  83 (R=0.069)  charge=  1.2597  magn= -0.0001
     atom  84 (R=0.069)  charge=  1.2579  magn=  0.0001
     atom  85 (R=0.102)  charge= 13.8691  magn= -0.0167
     atom  86 (R=0.069)  charge=  1.2610  magn=  0.0022
     atom  87 (R=0.069)  charge=  1.2586  magn= -0.0001
     atom  88 (R=0.069)  charge=  1.2598  magn= -0.0001
     atom  89 (R=0.069)  charge=  1.2583  magn= -0.0006
     atom  90 (R=0.102)  charge= 13.8473  magn=  0.3417
     atom  91 (R=0.102)  charge= 13.8730  magn= -0.0063
     atom  92 (R=0.069)  charge=  1.2594  magn= -0.0015
     atom  93 (R=0.069)  charge=  1.2600  magn= -0.0003
     atom  94 (R=0.069)  charge=  1.2596  magn= -0.0000
     atom  95 (R=0.069)  charge=  1.2592  magn= -0.0002
     atom  96 (R=0.069)  charge=  0.6831  magn=  0.0005

     total cpu time spent up to now is      565.3 secs

     End of self-consistent calculation

 ------ SPIN UP ------------


          k = 0.0000 0.0000 0.0000 ( 69157 PWs)   bands (ev):

   -75.3382 -75.0692 -74.9309 -74.9126 -74.8968 -74.8942 -74.8889 -74.8886
   -74.8791 -74.8781 -74.8771 -74.8623 -74.8594 -74.8582 -74.8581 -74.8572
   -74.8566 -74.8555 -74.8543 -74.8538 -74.8529 -74.8528 -74.8521 -74.8513
   -74.8496 -74.8488 -74.8485 -74.8471 -74.8457 -74.8441 -74.8424 -41.4055
   -41.3629 -41.1531 -41.0794 -41.0390 -41.0207 -40.9906 -40.9865 -40.9743
   -40.9680 -40.9652 -40.9454 -40.9398 -40.9366 -40.9346 -40.9332 -40.9326
   -40.9317 -40.9313 -40.9300 -40.9285 -40.9275 -40.9264 -40.9260 -40.9255
   -40.9249 -40.9241 -40.9238 -40.9230 -40.9217 -40.9209 -40.9171 -40.9145
   -40.9142 -40.9127 -40.8571 -40.8459 -40.8367 -40.8249 -40.8195 -40.8180
   -40.8155 -40.8148 -40.8133 -40.8104 -40.8078 -40.8072 -40.8024 -40.7979
   -40.7942 -40.7935 -40.7930 -40.7926 -40.7918 -40.7900 -40.7897 -40.7883
   -40.7877 -40.7870 -40.7868 -40.7864 -40.7853 -40.7850 -40.7840 -40.7831
   -40.7818 -40.7805 -40.7790 -40.7783 -40.7776 -40.7758 -40.7740 -40.7737
   -40.7631 -40.7582 -40.7559 -40.7551 -40.7543 -40.7521 -40.7517 -40.7507
   -40.7487 -40.7468 -40.7455 -40.7446 -40.7428 -40.7427 -40.7417 -40.7406
   -40.7361 -40.7352 -40.7308 -40.7274  -4.3737  -3.8840  -3.8135  -3.4915
    -3.4526  -3.1516  -3.0571  -3.0315  -3.0069  -2.9867  -2.9073  -2.7421
    -2.6592  -2.6466  -2.6350  -2.6137  -2.5585  -2.5428  -2.5207  -2.4768
    -2.4748  -2.3727  -2.3492  -2.3240  -2.2868  -2.2395  -2.2076  -2.0889
    -2.0800  -1.9983  -1.9804  -1.9359  -1.3675  -1.3360  -0.9554  -0.9433
    -0.9062  -0.8529  -0.6334  -0.6209  -0.4889  -0.4561  -0.4396  -0.4328
    -0.3585  -0.3413  -0.2764  -0.2246  -0.1386  -0.0262   0.0606   0.0841
     0.0929   0.2713   0.2981   0.3047   0.3323   0.3934   0.4169   0.4380
     0.4820   0.4854   0.5664   0.6510   4.5421   4.7092   4.7283   4.8638
     5.1266   5.1576   5.1587   5.1715   5.2049   5.2433   5.2489   5.2703
     5.2801   5.2919   5.3023   5.3229   5.4126   5.4925   5.5529   5.6508
     5.6821   5.7002   5.7502   5.7701   5.8525   5.8924   5.8973   5.9182
     5.9262   5.9433   5.9506   5.9648   5.9812   6.0166   6.0243   6.0646
     6.0957   6.1891   6.2397   6.2837   6.5239   6.5672   6.6023   6.6107
     6.7162   6.7247   6.7791   6.8126   6.8272   6.8323   6.8439   6.8912
     6.9553   6.9820   7.0052   7.0703   7.1454   7.1525   7.1568   7.1898
     7.2042   7.2128   7.2323   7.2518   7.2911   7.3364   7.3743   7.4428
     7.6651   7.7919   7.7962   7.8147   7.8294   7.8373   7.8404   7.8571
     7.8598   7.8709   7.8731   7.8789   7.8840   7.8885   7.9013   7.9053
     7.9201   7.9598   7.9917   8.0691   8.1560   8.1867   8.2141   8.2294
     8.2939   8.3014   8.3039   8.3499   8.3652   8.3987   8.4521   8.4722
     8.4886   8.5021   8.5155   8.5335   8.5368   8.5429   8.5867   8.6177
     8.6254   8.6346   8.6652   8.6789   8.6957   8.7201   8.7397   8.7492
     8.7630   8.8059   8.8089   8.8235   8.8332   8.8882   8.9139   8.9340
     8.9483   8.9899   9.0329   9.1399   9.2276   9.3366   9.3773   9.3870
     9.4178   9.4527   9.4778   9.4944   9.5010   9.5514   9.5783   9.5856
     9.5880   9.6074   9.6157   9.6209   9.6505   9.7061   9.7791   9.8568
     9.9690   9.9791  10.0965  10.1886  10.2130  10.2320  10.3593  10.3793
    10.4058  10.4336  10.4556  10.6284  10.6748  10.7001  10.7031  10.7342
    10.7561  10.7700  10.8247  10.8314  10.8479  10.8582  10.8709  10.8762
    10.8823  10.8862  10.8940  10.9098  10.9479  10.9596  10.9711  11.0066
    11.0136  11.0403  11.1086  11.1377  11.1636  11.1785  11.1813  11.2009
    11.2047  11.2387  11.2626  11.2729  11.2766  11.2837  11.2894  11.2959
    11.2985  11.3039  11.3252  11.3417  11.3602  11.3705  11.3822  11.3853
    11.3898  11.4009  11.4050  11.4100  11.4308  11.4568  11.4810  11.4941
    11.5049  11.5187  11.5292  11.5876  11.6084  11.6176  11.6408  11.6776
    11.6845  11.6874  11.7178  11.7222  11.7367  11.7500  11.7504  11.7997
    11.8071  11.8734  11.9027  11.9106  11.9264  11.9430  11.9510  11.9587
    11.9750  11.9820  12.0004  12.0359  12.0689  12.0924  12.0997  12.1136
    12.1486  12.1870  12.1995  12.2615  12.2717  12.2807  12.3176  12.3365
    12.3806  13.1256  13.1328  13.3090  13.3220  13.3469  13.3516  13.3592
    13.4002  13.4403  13.5622  13.6328  13.6435  13.6516  13.6637  13.6980
    13.7098  13.7246  13.7621  13.7976  13.8141  13.8215  13.8345  13.8366
    13.8601  13.8730  13.8965  13.9195  13.9258  13.9337  13.9478  13.9592
    13.9722  14.0018  14.0578  14.0799  14.1186  14.1227  14.1409  14.1671
    14.1701  14.1738  14.1815  14.1975  14.2269  14.2377  14.2686  14.3049
    14.3355  14.3412  14.3596  14.3643  14.4080  14.4259  14.4302  14.4749
    14.4848  14.5406  14.5530  14.6394  14.6744  14.7198  14.7298  14.7611
    14.7672  14.7732  14.7893  14.8036  14.8182  14.8405  14.8705  14.8804
    14.9221  14.9343  14.9510  14.9770  14.9988  15.0548  15.0667  15.1443
    15.1746  15.2414  15.2584  15.2617  15.3629  15.3973  15.4194  15.4695
    15.4936

     occupation numbers 
     1.0000   1.0000   1.0000   1.0000   1.0000   1.0000   1.0000   1.0000
     1.0000   1.0000   1.0000   1.0000   1.0000   1.0000   1.0000   1.0000
     1.0000   1.0000   1.0000   1.0000   1.0000   1.0000   1.0000   1.0000
     1.0000   1.0000   1.0000   1.0000   1.0000   1.0000   1.0000   1.0000
     1.0000   1.0000   1.0000   1.0000   1.0000   1.0000   1.0000   1.0000
     1.0000   1.0000   1.0000   1.0000   1.0000   1.0000   1.0000   1.0000
     1.0000   1.0000   1.0000   1.0000   1.0000   1.0000   1.0000   1.0000
     1.0000   1.0000   1.0000   1.0000   1.0000   1.0000   1.0000   1.0000
     1.0000   1.0000   1.0000   1.0000   1.0000   1.0000   1.0000   1.0000
     1.0000   1.0000   1.0000   1.0000   1.0000   1.0000   1.0000   1.0000
     1.0000   1.0000   1.0000   1.0000   1.0000   1.0000   1.0000   1.0000
     1.0000   1.0000   1.0000   1.0000   1.0000   1.0000   1.0000   1.0000
     1.0000   1.0000   1.0000   1.0000   1.0000   1.0000   1.0000   1.0000
     1.0000   1.0000   1.0000   1.0000   1.0000   1.0000   1.0000   1.0000
     1.0000   1.0000   1.0000   1.0000   1.0000   1.0000   1.0000   1.0000
     1.0000   1.0000   1.0000   1.0000   1.0000   1.0000   1.0000   1.0000
     1.0000   1.0000   1.0000   1.0000   1.0000   1.0000   1.0000   1.0000
     1.0000   1.0000   1.0000   1.0000   1.0000   1.0000   1.0000   1.0000
     1.0000   1.0000   1.0000   1.0000   1.0000   1.0000   1.0000   1.0000
     1.0000   1.0000   1.0000   1.0000   1.0000   1.0000   1.0000   1.0000
     1.0000   1.0000   1.0000   1.0000   1.0000   1.0000   1.0000   1.0000
     1.0000   1.0000   1.0000   1.0000   1.0000   1.0000   1.0000   1.0000
     1.0000   1.0000   1.0000   1.0000   1.0000   1.0000   1.0000   1.0000
     1.0000   1.0000   1.0000   1.0000   1.0000   1.0000   1.0000   1.0000
     1.0000   1.0000   1.0000   1.0000   1.0000   1.0000   1.0000   1.0000
     1.0000   1.0000   1.0000   1.0000   1.0000   1.0000   1.0000   1.0000
     1.0000   1.0000   1.0000   1.0000   1.0000   1.0000   1.0000   1.0000
     1.0000   1.0000   1.0000   1.0000   1.0000   1.0000   1.0000   1.0000
     1.0000   1.0000   1.0000   1.0000   1.0000   1.0000   1.0000   1.0000
     1.0000   1.0000   1.0000   1.0000   1.0000   1.0000   1.0000   1.0000
     1.0000   1.0000   1.0000   1.0000   1.0000   1.0000   1.0000   1.0000
     1.0000   1.0000   1.0000   1.0000   1.0000   1.0000   1.0000   1.0000
     1.0000   1.0000   1.0000   1.0000   1.0000   1.0000   1.0000   1.0000
     1.0000   1.0000   1.0000   1.0000   1.0000   1.0000   1.0000   1.0000
     1.0000   1.0000   1.0000   1.0000   1.0000   1.0000   1.0000   1.0000
     1.0000   1.0000   1.0000   1.0000   1.0000   1.0000   1.0000   1.0000
     1.0000   1.0000   1.0000   1.0000   1.0000   1.0000   1.0000   1.0000
     1.0000   1.0000   1.0000   1.0000   1.0000   1.0000   1.0000   1.0000
     1.0000   1.0000   1.0000   1.0000   1.0000   1.0000   1.0000   1.0000
     1.0000   1.0000   1.0000   1.0000   1.0000   1.0000   1.0000   1.0000
     1.0000   1.0000   1.0000   1.0000   1.0000   1.0000   1.0000   1.0000
     1.0000   1.0000   1.0000   1.0000   1.0000   1.0000   1.0000   1.0000
     1.0000   1.0000   1.0000   1.0000   1.0000   1.0000   1.0000   1.0000
     1.0000   1.0000   1.0000   1.0000   1.0000   1.0000   1.0000   1.0000
     1.0000   1.0000   1.0000   1.0000   1.0000   1.0000   1.0000   1.0000
     1.0000   1.0000   1.0000   1.0000   1.0000   1.0000   1.0000   1.0000
     1.0000   1.0000   1.0000   1.0000   1.0000   1.0000   1.0000   1.0000
     1.0000   1.0000   1.0000   1.0000   1.0000   1.0000   1.0000   1.0000
     1.0000   1.0000   1.0000   1.0000   1.0000   1.0000   1.0000   1.0000
     1.0000   1.0000   1.0000   1.0000   1.0000   1.0000   1.0000   1.0000
     1.0000   1.0000   1.0000   1.0000   1.0000   1.0000   1.0001   1.0002
     1.0002   1.0002   1.0005   1.0006   1.0008   1.0011   1.0011   1.0031
     1.0036   1.0118   1.0183   1.0205   1.0253   1.0312   1.0343   1.0374
     1.0443   1.0475   1.0559   1.0715   1.0815   1.0832   1.0824   1.0789
     1.0557   1.0020   0.9776   0.8088   0.7750   0.7439   0.6102   0.5406
     0.3857   0.0000   0.0000   0.0000   0.0000   0.0000   0.0000   0.0000
     0.0000   0.0000   0.0000   0.0000   0.0000   0.0000   0.0000   0.0000
     0.0000   0.0000   0.0000   0.0000   0.0000   0.0000   0.0000   0.0000
     0.0000   0.0000   0.0000   0.0000   0.0000   0.0000   0.0000   0.0000
     0.0000   0.0000   0.0000   0.0000   0.0000   0.0000   0.0000   0.0000
     0.0000   0.0000   0.0000   0.0000   0.0000   0.0000   0.0000   0.0000
     0.0000   0.0000   0.0000   0.0000   0.0000   0.0000   0.0000   0.0000
     0.0000   0.0000   0.0000   0.0000   0.0000   0.0000   0.0000   0.0000
     0.0000   0.0000   0.0000   0.0000   0.0000   0.0000   0.0000   0.0000
     0.0000   0.0000   0.0000   0.0000   0.0000   0.0000   0.0000   0.0000
     0.0000   0.0000   0.0000   0.0000   0.0000   0.0000   0.0000   0.0000
     0.0000

          k = 0.0000 0.0000 0.2186 ( 69203 PWs)   bands (ev):

   -75.3383 -75.0693 -74.9311 -74.9128 -74.8969 -74.8943 -74.8890 -74.8887
   -74.8792 -74.8782 -74.8773 -74.8623 -74.8595 -74.8583 -74.8582 -74.8573
   -74.8567 -74.8556 -74.8543 -74.8540 -74.8532 -74.8530 -74.8522 -74.8514
   -74.8497 -74.8490 -74.8487 -74.8473 -74.8458 -74.8443 -74.8426 -41.4060
   -41.3629 -41.1535 -41.0799 -41.0391 -41.0211 -40.9908 -40.9867 -40.9746
   -40.9683 -40.9655 -40.9458 -40.9400 -40.9367 -40.9346 -40.9331 -40.9327
   -40.9321 -40.9318 -40.9299 -40.9287 -40.9281 -40.9269 -40.9265 -40.9257
   -40.9252 -40.9248 -40.9242 -40.9238 -40.9229 -40.9220 -40.9176 -40.9149
   -40.9146 -40.9136 -40.8573 -40.8463 -40.8371 -40.8252 -40.8202 -40.8179
   -40.8160 -40.8152 -40.8137 -40.8110 -40.8081 -40.8071 -40.8029 -40.7982
   -40.7946 -40.7938 -40.7933 -40.7929 -40.7921 -40.7904 -40.7902 -40.7893
   -40.7879 -40.7875 -40.7868 -40.7868 -40.7859 -40.7853 -40.7846 -40.7838
   -40.7820 -40.7806 -40.7789 -40.7786 -40.7781 -40.7762 -40.7748 -40.7738
   -40.7636 -40.7583 -40.7565 -40.7550 -40.7545 -40.7524 -40.7521 -40.7511
   -40.7483 -40.7468 -40.7463 -40.7450 -40.7435 -40.7421 -40.7409 -40.7395
   -40.7357 -40.7348 -40.7306 -40.7271  -4.3132  -4.1331  -3.5073  -3.4309
    -3.4015  -3.2821  -3.2546  -3.0823  -2.9796  -2.8823  -2.8393  -2.7853
    -2.7765  -2.7540  -2.6073  -2.5644  -2.5381  -2.5068  -2.4836  -2.4365
    -2.4322  -2.4038  -2.3103  -2.2967  -2.2615  -2.2187  -2.1988  -2.1209
    -2.1126  -2.0731  -1.9784  -1.9330  -1.3150  -1.2925  -1.1549  -1.1154
    -0.6833  -0.6584  -0.6137  -0.6002  -0.5406  -0.5314  -0.4506  -0.4391
    -0.3603  -0.3529  -0.2936  -0.2104  -0.1439  -0.0897   0.1108   0.1205
     0.1620   0.2170   0.2391   0.3023   0.3505   0.3650   0.4067   0.4606
     0.4853   0.4914   0.5684   0.6511   4.5717   4.7775   4.7858   4.8537
     4.9659   4.9901   5.0639   5.2326   5.2659   5.2872   5.3265   5.3579
     5.3737   5.3821   5.4076   5.4476   5.4762   5.5138   5.5225   5.5414
     5.5474   5.5621   5.5946   5.6048   5.6533   5.7132   5.8158   5.8461
     5.9178   5.9587   5.9686   5.9800   6.0131   6.0954   6.1691   6.1959
     6.3970   6.4051   6.4279   6.4400   6.4738   6.4839   6.4929   6.5358
     6.6009   6.6470   6.7118   6.7491   6.8100   6.8443   6.8550   6.8786
     6.9037   6.9306   6.9482   7.0326   7.0720   7.1283   7.2039   7.2427
     7.2624   7.2874   7.3059   7.3406   7.3556   7.4065   7.4206   7.4447
     7.4937   7.5279   7.6269   7.6804   7.7482   7.7658   7.7798   7.8538
     7.8746   7.8799   7.8985   7.9105   7.9417   7.9849   8.0089   8.0404
     8.0745   8.1022   8.1156   8.1284   8.1819   8.1947   8.2314   8.2667
     8.2978   8.3373   8.3494   8.3654   8.3881   8.3931   8.4098   8.4172
     8.4285   8.4491   8.4523   8.4767   8.4909   8.5189   8.5382   8.5423
     8.5717   8.5954   8.6177   8.6772   8.7009   8.7255   8.7703   8.7988
     8.8062   8.8229   8.8370   8.8573   8.8632   8.8769   8.9331   9.0026
     9.0573   9.0776   9.1264   9.1743   9.2050   9.2477   9.3324   9.3580
     9.4100   9.4522   9.4765   9.4898   9.4932   9.5159   9.5241   9.5448
     9.5727   9.6014   9.6662   9.6750   9.7716   9.8009   9.8442   9.8883
     9.9109  10.0114  10.0322  10.1307  10.1736  10.2355  10.2625  10.3731
    10.4287  10.4447  10.4844  10.4959  10.5005  10.5354  10.5708  10.5905
    10.6745  10.6905  10.7231  10.7492  10.7640  10.8003  10.8091  10.8173
    10.8414  10.8661  10.8823  10.9144  10.9411  10.9935  11.0050  11.0526
    11.0792  11.1253  11.1320  11.1535  11.1745  11.2070  11.2216  11.2370
    11.2484  11.2541  11.2619  11.2712  11.2763  11.2842  11.2950  11.3027
    11.3229  11.3433  11.3601  11.3834  11.4066  11.4142  11.4243  11.4357
    11.4636  11.4670  11.4795  11.4866  11.4913  11.5000  11.5070  11.5129
    11.5179  11.5314  11.5528  11.5697  11.5812  11.6134  11.6293  11.6471
    11.6504  11.6969  11.7110  11.7248  11.7549  11.7808  11.7979  11.8255
    11.8525  11.9001  11.9174  11.9387  11.9516  11.9606  11.9862  11.9945
    11.9997  12.0033  12.0288  12.0365  12.0507  12.0596  12.0876  12.1190
    12.1330  12.1404  12.1594  12.1901  12.2020  12.2213  12.2473  12.3081
    12.3804  13.1623  13.1703  13.2704  13.2885  13.3546  13.4135  13.4325
    13.4644  13.4844  13.5160  13.5244  13.5723  13.5937  13.6189  13.6566
    13.6809  13.7027  13.7099  13.7220  13.7487  13.7740  13.7914  13.8088
    13.8265  13.8381  13.8459  13.8652  13.8799  13.9251  13.9427  13.9617
    13.9938  14.0447  14.0541  14.0688  14.1371  14.1443  14.1621  14.1743
    14.1950  14.2025  14.2170  14.2688  14.2977  14.3249  14.3464  14.3800
    14.4234  14.4335  14.4392  14.4473  14.4607  14.4760  14.4835  14.4977
    14.5039  14.5190  14.5608  14.5691  14.5986  14.6283  14.6330  14.6456
    14.6619  14.7123  14.7372  14.7992  14.8387  14.8486  14.8844  14.9166
    14.9626  14.9866  15.0313  15.0469  15.0582  15.1079  15.1325  15.1603
    15.1725  15.2093  15.2340  15.2905  15.3022  15.3380  15.3550  15.3868
    15.4221

     occupation numbers 
     1.0000   1.0000   1.0000   1.0000   1.0000   1.0000   1.0000   1.0000
     1.0000   1.0000   1.0000   1.0000   1.0000   1.0000   1.0000   1.0000
     1.0000   1.0000   1.0000   1.0000   1.0000   1.0000   1.0000   1.0000
     1.0000   1.0000   1.0000   1.0000   1.0000   1.0000   1.0000   1.0000
     1.0000   1.0000   1.0000   1.0000   1.0000   1.0000   1.0000   1.0000
     1.0000   1.0000   1.0000   1.0000   1.0000   1.0000   1.0000   1.0000
     1.0000   1.0000   1.0000   1.0000   1.0000   1.0000   1.0000   1.0000
     1.0000   1.0000   1.0000   1.0000   1.0000   1.0000   1.0000   1.0000
     1.0000   1.0000   1.0000   1.0000   1.0000   1.0000   1.0000   1.0000
     1.0000   1.0000   1.0000   1.0000   1.0000   1.0000   1.0000   1.0000
     1.0000   1.0000   1.0000   1.0000   1.0000   1.0000   1.0000   1.0000
     1.0000   1.0000   1.0000   1.0000   1.0000   1.0000   1.0000   1.0000
     1.0000   1.0000   1.0000   1.0000   1.0000   1.0000   1.0000   1.0000
     1.0000   1.0000   1.0000   1.0000   1.0000   1.0000   1.0000   1.0000
     1.0000   1.0000   1.0000   1.0000   1.0000   1.0000   1.0000   1.0000
     1.0000   1.0000   1.0000   1.0000   1.0000   1.0000   1.0000   1.0000
     1.0000   1.0000   1.0000   1.0000   1.0000   1.0000   1.0000   1.0000
     1.0000   1.0000   1.0000   1.0000   1.0000   1.0000   1.0000   1.0000
     1.0000   1.0000   1.0000   1.0000   1.0000   1.0000   1.0000   1.0000
     1.0000   1.0000   1.0000   1.0000   1.0000   1.0000   1.0000   1.0000
     1.0000   1.0000   1.0000   1.0000   1.0000   1.0000   1.0000   1.0000
     1.0000   1.0000   1.0000   1.0000   1.0000   1.0000   1.0000   1.0000
     1.0000   1.0000   1.0000   1.0000   1.0000   1.0000   1.0000   1.0000
     1.0000   1.0000   1.0000   1.0000   1.0000   1.0000   1.0000   1.0000
     1.0000   1.0000   1.0000   1.0000   1.0000   1.0000   1.0000   1.0000
     1.0000   1.0000   1.0000   1.0000   1.0000   1.0000   1.0000   1.0000
     1.0000   1.0000   1.0000   1.0000   1.0000   1.0000   1.0000   1.0000
     1.0000   1.0000   1.0000   1.0000   1.0000   1.0000   1.0000   1.0000
     1.0000   1.0000   1.0000   1.0000   1.0000   1.0000   1.0000   1.0000
     1.0000   1.0000   1.0000   1.0000   1.0000   1.0000   1.0000   1.0000
     1.0000   1.0000   1.0000   1.0000   1.0000   1.0000   1.0000   1.0000
     1.0000   1.0000   1.0000   1.0000   1.0000   1.0000   1.0000   1.0000
     1.0000   1.0000   1.0000   1.0000   1.0000   1.0000   1.0000   1.0000
     1.0000   1.0000   1.0000   1.0000   1.0000   1.0000   1.0000   1.0000
     1.0000   1.0000   1.0000   1.0000   1.0000   1.0000   1.0000   1.0000
     1.0000   1.0000   1.0000   1.0000   1.0000   1.0000   1.0000   1.0000
     1.0000   1.0000   1.0000   1.0000   1.0000   1.0000   1.0000   1.0000
     1.0000   1.0000   1.0000   1.0000   1.0000   1.0000   1.0000   1.0000
     1.0000   1.0000   1.0000   1.0000   1.0000   1.0000   1.0000   1.0000
     1.0000   1.0000   1.0000   1.0000   1.0000   1.0000   1.0000   1.0000
     1.0000   1.0000   1.0000   1.0000   1.0000   1.0000   1.0000   1.0000
     1.0000   1.0000   1.0000   1.0000   1.0000   1.0000   1.0000   1.0000
     1.0000   1.0000   1.0000   1.0000   1.0000   1.0000   1.0000   1.0000
     1.0000   1.0000   1.0000   1.0000   1.0000   1.0000   1.0000   1.0000
     1.0000   1.0000   1.0000   1.0000   1.0000   1.0000   1.0000   1.0000
     1.0000   1.0000   1.0000   1.0000   1.0000   1.0000   1.0000   1.0000
     1.0000   1.0000   1.0000   1.0000   1.0000   1.0000   1.0000   1.0000
     1.0000   1.0000   1.0000   1.0000   1.0000   1.0000   1.0000   1.0000
     1.0000   1.0000   1.0000   1.0000   1.0000   1.0000   1.0000   1.0000
     1.0000   1.0000   1.0000   1.0000   1.0000   1.0000   1.0000   1.0000
     1.0000   1.0000   1.0000   1.0000   1.0000   1.0000   1.0001   1.0001
     1.0001   1.0003   1.0004   1.0006   1.0012   1.0021   1.0030   1.0051
     1.0083   1.0177   1.0225   1.0296   1.0345   1.0382   1.0494   1.0532
     1.0556   1.0572   1.0686   1.0717   1.0768   1.0794   1.0833   1.0767
     1.0688   1.0631   1.0438   0.9963   0.9723   0.9269   0.8537   0.6451
     0.3863   0.0000   0.0000   0.0000   0.0000   0.0000   0.0000   0.0000
     0.0000   0.0000   0.0000   0.0000   0.0000   0.0000   0.0000   0.0000
     0.0000   0.0000   0.0000   0.0000   0.0000   0.0000   0.0000   0.0000
     0.0000   0.0000   0.0000   0.0000   0.0000   0.0000   0.0000   0.0000
     0.0000   0.0000   0.0000   0.0000   0.0000   0.0000   0.0000   0.0000
     0.0000   0.0000   0.0000   0.0000   0.0000   0.0000   0.0000   0.0000
     0.0000   0.0000   0.0000   0.0000   0.0000   0.0000   0.0000   0.0000
     0.0000   0.0000   0.0000   0.0000   0.0000   0.0000   0.0000   0.0000
     0.0000   0.0000   0.0000   0.0000   0.0000   0.0000   0.0000   0.0000
     0.0000   0.0000   0.0000   0.0000   0.0000   0.0000   0.0000   0.0000
     0.0000   0.0000   0.0000   0.0000   0.0000   0.0000   0.0000   0.0000
     0.0000

          k = 0.0000-0.4095 0.0000 ( 69190 PWs)   bands (ev):

   -75.3383 -75.0693 -74.9310 -74.9127 -74.8969 -74.8943 -74.8890 -74.8887
   -74.8792 -74.8781 -74.8773 -74.8623 -74.8594 -74.8582 -74.8582 -74.8573
   -74.8567 -74.8555 -74.8543 -74.8539 -74.8531 -74.8530 -74.8522 -74.8515
   -74.8496 -74.8490 -74.8487 -74.8473 -74.8458 -74.8443 -74.8426 -41.4055
   -41.3634 -41.1532 -41.0794 -41.0393 -41.0208 -40.9905 -40.9868 -40.9743
   -40.9680 -40.9653 -40.9455 -40.9396 -40.9363 -40.9342 -40.9325 -40.9323
   -40.9319 -40.9317 -40.9294 -40.9284 -40.9278 -40.9263 -40.9261 -40.9253
   -40.9250 -40.9249 -40.9241 -40.9235 -40.9222 -40.9218 -40.9173 -40.9144
   -40.9140 -40.9138 -40.8575 -40.8460 -40.8368 -40.8255 -40.8198 -40.8179
   -40.8156 -40.8148 -40.8133 -40.8106 -40.8077 -40.8075 -40.8025 -40.7979
   -40.7938 -40.7934 -40.7929 -40.7924 -40.7921 -40.7901 -40.7898 -40.7889
   -40.7877 -40.7872 -40.7868 -40.7866 -40.7860 -40.7856 -40.7843 -40.7836
   -40.7818 -40.7802 -40.7791 -40.7786 -40.7779 -40.7761 -40.7745 -40.7744
   -40.7637 -40.7587 -40.7561 -40.7553 -40.7550 -40.7529 -40.7525 -40.7517
   -40.7492 -40.7473 -40.7461 -40.7455 -40.7438 -40.7432 -40.7427 -40.7411
   -40.7361 -40.7353 -40.7313 -40.7277  -4.1505  -4.1215  -3.7064  -3.6252
    -3.6021  -3.5925  -2.9802  -2.7793  -2.7491  -2.7459  -2.6980  -2.5873
    -2.5780  -2.5668  -2.5563  -2.5383  -2.5243  -2.5179  -2.5129  -2.4867
    -2.4619  -2.4563  -2.4521  -2.3945  -2.3620  -2.3207  -2.3140  -2.2770
    -2.2067  -2.1504  -2.1346  -2.1276  -0.9988  -0.9715  -0.9564  -0.9486
    -0.7331  -0.6886  -0.6870  -0.6826  -0.6819  -0.6617  -0.6202  -0.5474
    -0.3395  -0.3322  -0.2969  -0.1690   0.0462   0.0588   0.0677   0.0753
     0.1294   0.1615   0.2211   0.2579   0.2912   0.3144   0.4454   0.4540
     0.4657   0.5075   0.5521   0.6439   4.6860   4.8350   4.8713   5.2226
     5.2418   5.2457   5.2569   5.2895   5.3024   5.3159   5.3298   5.3506
     5.3577   5.3618   5.3672   5.3728   5.3773   5.3849   5.3917   5.3999
     5.4078   5.4321   5.4508   5.4541   5.4725   5.5191   5.7012   5.7471
     5.7622   5.8022   6.0128   6.1588   6.1840   6.1990   6.2557   6.2806
     6.3263   6.3430   6.3679   6.4000   6.5374   6.6310   6.6498   6.6572
     6.6650   6.6773   6.7164   6.7453   6.7527   6.7648   6.7713   6.7992
     6.8339   6.8509   7.0019   7.1114   7.1134   7.1827   7.2389   7.2473
     7.2584   7.3349   7.4848   7.5343   7.5702   7.5811   7.6027   7.6058
     7.6345   7.6944   7.6991   7.7286   7.7432   7.7735   7.7983   7.8399
     7.8534   7.8722   7.8750   7.8878   7.9017   7.9079   7.9187   7.9266
     7.9388   7.9533   7.9784   7.9939   8.0033   8.0230   8.0296   8.0559
     8.0971   8.1459   8.1586   8.1592   8.1970   8.2695   8.2707   8.3076
     8.3278   8.3568   8.3698   8.3833   8.4010   8.4409   8.4501   8.4851
     8.5362   8.6375   8.7797   8.8096   8.8160   8.8368   8.8461   8.8840
     8.8885   8.9029   8.9472   8.9910   9.0364   9.0548   9.0621   9.1260
     9.1444   9.1704   9.1839   9.1968   9.2468   9.2857   9.3451   9.4031
     9.4503   9.4538   9.4655   9.5211   9.5288   9.5344   9.5425   9.5616
     9.5633   9.5838   9.5855   9.5981   9.6549   9.7261   9.7911   9.8818
     9.9077   9.9891  10.0629  10.0934  10.1155  10.1311  10.3207  10.3905
    10.4126  10.4145  10.4567  10.5481  10.5946  10.6205  10.6366  10.6492
    10.7522  10.7709  10.7906  10.7961  10.8135  10.8219  10.8375  10.8456
    10.8569  10.9009  10.9055  10.9178  10.9593  10.9783  10.9833  11.0021
    11.0079  11.0172  11.1141  11.1153  11.1898  11.1980  11.2125  11.2263
    11.2781  11.3011  11.3049  11.3096  11.3154  11.3187  11.3256  11.3336
    11.3382  11.3491  11.3588  11.3845  11.3949  11.4124  11.4406  11.4542
    11.4584  11.4756  11.4821  11.4943  11.5000  11.5201  11.5238  11.5338
    11.5406  11.5423  11.5496  11.5625  11.6163  11.6298  11.6433  11.6532
    11.6885  11.6964  11.6991  11.7544  11.7716  11.8072  11.8178  11.8330
    11.8692  11.8836  11.8945  11.9148  11.9267  11.9303  11.9328  11.9576
    11.9732  11.9773  11.9828  11.9875  12.0020  12.0078  12.0222  12.0350
    12.0478  12.0663  12.0889  12.1242  12.1632  12.2353  12.2557  12.2751
    12.4060  13.2261  13.3031  13.3293  13.3682  13.3888  13.3986  13.5038
    13.5435  13.5592  13.5970  13.6025  13.6196  13.6269  13.6345  13.6567
    13.6686  13.7051  13.7425  13.7479  13.7635  13.8211  13.8579  13.8671
    13.8744  13.8840  13.8983  13.9199  13.9395  13.9534  13.9696  13.9804
    13.9839  14.0009  14.0178  14.0255  14.0284  14.0363  14.0521  14.0629
    14.1155  14.1301  14.1346  14.1638  14.2038  14.2313  14.2476  14.2570
    14.2601  14.2609  14.2683  14.2763  14.2987  14.3110  14.3255  14.3543
    14.4060  14.4321  14.4458  14.7193  14.7851  14.8147  14.8338  14.8500
    14.8737  14.8908  14.9039  14.9583  14.9808  14.9989  15.0327  15.0639
    15.0702  15.0878  15.1036  15.1154  15.1196  15.1514  15.1657  15.2037
    15.2286  15.2540  15.2579  15.3040  15.3075  15.3201  15.3265  15.3315
    15.3678

     occupation numbers 
     1.0000   1.0000   1.0000   1.0000   1.0000   1.0000   1.0000   1.0000
     1.0000   1.0000   1.0000   1.0000   1.0000   1.0000   1.0000   1.0000
     1.0000   1.0000   1.0000   1.0000   1.0000   1.0000   1.0000   1.0000
     1.0000   1.0000   1.0000   1.0000   1.0000   1.0000   1.0000   1.0000
     1.0000   1.0000   1.0000   1.0000   1.0000   1.0000   1.0000   1.0000
     1.0000   1.0000   1.0000   1.0000   1.0000   1.0000   1.0000   1.0000
     1.0000   1.0000   1.0000   1.0000   1.0000   1.0000   1.0000   1.0000
     1.0000   1.0000   1.0000   1.0000   1.0000   1.0000   1.0000   1.0000
     1.0000   1.0000   1.0000   1.0000   1.0000   1.0000   1.0000   1.0000
     1.0000   1.0000   1.0000   1.0000   1.0000   1.0000   1.0000   1.0000
     1.0000   1.0000   1.0000   1.0000   1.0000   1.0000   1.0000   1.0000
     1.0000   1.0000   1.0000   1.0000   1.0000   1.0000   1.0000   1.0000
     1.0000   1.0000   1.0000   1.0000   1.0000   1.0000   1.0000   1.0000
     1.0000   1.0000   1.0000   1.0000   1.0000   1.0000   1.0000   1.0000
     1.0000   1.0000   1.0000   1.0000   1.0000   1.0000   1.0000   1.0000
     1.0000   1.0000   1.0000   1.0000   1.0000   1.0000   1.0000   1.0000
     1.0000   1.0000   1.0000   1.0000   1.0000   1.0000   1.0000   1.0000
     1.0000   1.0000   1.0000   1.0000   1.0000   1.0000   1.0000   1.0000
     1.0000   1.0000   1.0000   1.0000   1.0000   1.0000   1.0000   1.0000
     1.0000   1.0000   1.0000   1.0000   1.0000   1.0000   1.0000   1.0000
     1.0000   1.0000   1.0000   1.0000   1.0000   1.0000   1.0000   1.0000
     1.0000   1.0000   1.0000   1.0000   1.0000   1.0000   1.0000   1.0000
     1.0000   1.0000   1.0000   1.0000   1.0000   1.0000   1.0000   1.0000
     1.0000   1.0000   1.0000   1.0000   1.0000   1.0000   1.0000   1.0000
     1.0000   1.0000   1.0000   1.0000   1.0000   1.0000   1.0000   1.0000
     1.0000   1.0000   1.0000   1.0000   1.0000   1.0000   1.0000   1.0000
     1.0000   1.0000   1.0000   1.0000   1.0000   1.0000   1.0000   1.0000
     1.0000   1.0000   1.0000   1.0000   1.0000   1.0000   1.0000   1.0000
     1.0000   1.0000   1.0000   1.0000   1.0000   1.0000   1.0000   1.0000
     1.0000   1.0000   1.0000   1.0000   1.0000   1.0000   1.0000   1.0000
     1.0000   1.0000   1.0000   1.0000   1.0000   1.0000   1.0000   1.0000
     1.0000   1.0000   1.0000   1.0000   1.0000   1.0000   1.0000   1.0000
     1.0000   1.0000   1.0000   1.0000   1.0000   1.0000   1.0000   1.0000
     1.0000   1.0000   1.0000   1.0000   1.0000   1.0000   1.0000   1.0000
     1.0000   1.0000   1.0000   1.0000   1.0000   1.0000   1.0000   1.0000
     1.0000   1.0000   1.0000   1.0000   1.0000   1.0000   1.0000   1.0000
     1.0000   1.0000   1.0000   1.0000   1.0000   1.0000   1.0000   1.0000
     1.0000   1.0000   1.0000   1.0000   1.0000   1.0000   1.0000   1.0000
     1.0000   1.0000   1.0000   1.0000   1.0000   1.0000   1.0000   1.0000
     1.0000   1.0000   1.0000   1.0000   1.0000   1.0000   1.0000   1.0000
     1.0000   1.0000   1.0000   1.0000   1.0000   1.0000   1.0000   1.0000
     1.0000   1.0000   1.0000   1.0000   1.0000   1.0000   1.0000   1.0000
     1.0000   1.0000   1.0000   1.0000   1.0000   1.0000   1.0000   1.0000
     1.0000   1.0000   1.0000   1.0000   1.0000   1.0000   1.0000   1.0000
     1.0000   1.0000   1.0000   1.0000   1.0000   1.0000   1.0000   1.0000
     1.0000   1.0000   1.0000   1.0000   1.0000   1.0000   1.0000   1.0000
     1.0000   1.0000   1.0000   1.0000   1.0000   1.0000   1.0000   1.0000
     1.0000   1.0000   1.0000   1.0000   1.0000   1.0000   1.0000   1.0000
     1.0000   1.0000   1.0000   1.0000   1.0000   1.0000   1.0000   1.0000
     1.0000   1.0000   1.0000   1.0000   1.0000   1.0000   1.0000   1.0000
     1.0000   1.0000   1.0000   1.0000   1.0000   1.0001   1.0001   1.0001
     1.0003   1.0003   1.0003   1.0012   1.0018   1.0036   1.0045   1.0059
     1.0110   1.0138   1.0163   1.0217   1.0255   1.0267   1.0275   1.0369
     1.0436   1.0454   1.0478   1.0500   1.0566   1.0593   1.0658   1.0711
     1.0758   1.0810   1.0833   1.0742   1.0390   0.8889   0.8276   0.7634
     0.3060   0.0000   0.0000   0.0000   0.0000   0.0000   0.0000   0.0000
     0.0000   0.0000   0.0000   0.0000   0.0000   0.0000   0.0000   0.0000
     0.0000   0.0000   0.0000   0.0000   0.0000   0.0000   0.0000   0.0000
[...]
     atom   72 type  2   force =     0.00497821    0.00288597    0.00006073
     atom   73 type  1   force =    -0.00008727    0.00011447    0.00015825
     atom   74 type  1   force =    -0.00002965   -0.00010205    0.00028933
     atom   75 type  2   force =     0.00489619   -0.00286471   -0.00005738
     atom   76 type  2   force =    -0.00479576    0.00304970    0.00001760
     atom   77 type  2   force =    -0.00502340   -0.00303505    0.00001159
     atom   78 type  2   force =     0.00515901    0.00325866    0.00022274
     atom   79 type  1   force =    -0.00152950    0.00061187   -0.00123685
     atom   80 type  1   force =     0.00083309   -0.00085903   -0.00185407
     atom   81 type  2   force =     0.00516944   -0.00269525    0.00032271
     atom   82 type  2   force =    -0.00507608    0.00307998    0.00019630
     atom   83 type  2   force =    -0.00500216   -0.00295278    0.00014958
     atom   84 type  2   force =     0.00640572    0.00383617    0.00000769
     atom   85 type  1   force =     0.00115516   -0.00053640    0.00201911
     atom   86 type  2   force =     0.00274696   -0.01107024    0.00000333
     atom   87 type  2   force =    -0.00497111    0.00332664   -0.00001170
     atom   88 type  2   force =    -0.00508085   -0.00303257   -0.00019718
     atom   89 type  2   force =     0.00633277    0.00371380    0.00002065
     atom   90 type  1   force =    -0.00016014    0.00004072    0.00132477
     atom   91 type  1   force =    -0.00000698   -0.00010556   -0.00043785
     atom   92 type  2   force =     0.00513231   -0.00255247   -0.00030045
     atom   93 type  2   force =    -0.00518715    0.00321227   -0.00029214
     atom   94 type  2   force =    -0.00498361   -0.00304119    0.00004379
     atom   95 type  2   force =     0.00530677    0.00324707   -0.00027384
     atom   96 type  3   force =     0.00000000    0.00000000    0.00000000
     The Hubbard contrib.    to forces
     atom    1 type  1   force =     0.00000000    0.00000000    0.00000000
     atom    2 type  1   force =     0.00000000    0.00000000    0.00000000
     atom    3 type  2   force =     0.00000000    0.00000000    0.00000000
     atom    4 type  2   force =     0.00000000    0.00000000    0.00000000
     atom    5 type  2   force =     0.00000000    0.00000000    0.00000000
     atom    6 type  2   force =     0.00000000    0.00000000    0.00000000
     atom    7 type  1   force =     0.00000000    0.00000000    0.00000000
     atom    8 type  1   force =     0.00000000    0.00000000    0.00000000
     atom    9 type  2   force =     0.00000000    0.00000000    0.00000000
     atom   10 type  2   force =     0.00000000    0.00000000    0.00000000
     atom   11 type  2   force =     0.00000000    0.00000000    0.00000000
     atom   12 type  2   force =     0.00000000    0.00000000    0.00000000
     atom   13 type  1   force =     0.00000000    0.00000000    0.00000000
     atom   14 type  1   force =     0.00000000    0.00000000    0.00000000
     atom   15 type  2   force =     0.00000000    0.00000000    0.00000000
     atom   16 type  2   force =     0.00000000    0.00000000    0.00000000
     atom   17 type  2   force =     0.00000000    0.00000000    0.00000000
     atom   18 type  2   force =     0.00000000    0.00000000    0.00000000
     atom   19 type  1   force =     0.00000000    0.00000000    0.00000000
     atom   20 type  1   force =     0.00000000    0.00000000    0.00000000
     atom   21 type  2   force =     0.00000000    0.00000000    0.00000000
     atom   22 type  2   force =     0.00000000    0.00000000    0.00000000
     atom   23 type  2   force =     0.00000000    0.00000000    0.00000000
     atom   24 type  2   force =     0.00000000    0.00000000    0.00000000
     atom   25 type  1   force =     0.00000000    0.00000000    0.00000000
     atom   26 type  1   force =     0.00000000    0.00000000    0.00000000
     atom   27 type  2   force =     0.00000000    0.00000000    0.00000000
     atom   28 type  2   force =     0.00000000    0.00000000    0.00000000
     atom   29 type  2   force =     0.00000000    0.00000000    0.00000000
     atom   30 type  2   force =     0.00000000    0.00000000    0.00000000
     atom   31 type  1   force =     0.00000000    0.00000000    0.00000000
     atom   32 type  1   force =     0.00000000    0.00000000    0.00000000
     atom   33 type  2   force =     0.00000000    0.00000000    0.00000000
     atom   34 type  2   force =     0.00000000    0.00000000    0.00000000
     atom   35 type  2   force =     0.00000000    0.00000000    0.00000000
     atom   36 type  2   force =     0.00000000    0.00000000    0.00000000
     atom   37 type  1   force =     0.00000000    0.00000000    0.00000000
     atom   38 type  1   force =     0.00000000    0.00000000    0.00000000
     atom   39 type  2   force =     0.00000000    0.00000000    0.00000000
     atom   40 type  2   force =     0.00000000    0.00000000    0.00000000
     atom   41 type  2   force =     0.00000000    0.00000000    0.00000000
     atom   42 type  2   force =     0.00000000    0.00000000    0.00000000
     atom   43 type  1   force =     0.00000000    0.00000000    0.00000000
     atom   44 type  1   force =     0.00000000    0.00000000    0.00000000
     atom   45 type  2   force =     0.00000000    0.00000000    0.00000000
     atom   46 type  2   force =     0.00000000    0.00000000    0.00000000
     atom   47 type  2   force =     0.00000000    0.00000000    0.00000000
     atom   48 type  2   force =     0.00000000    0.00000000    0.00000000
     atom   49 type  1   force =     0.00000000    0.00000000    0.00000000
     atom   50 type  1   force =     0.00000000    0.00000000    0.00000000
     atom   51 type  2   force =     0.00000000    0.00000000    0.00000000
     atom   52 type  2   force =     0.00000000    0.00000000    0.00000000
     atom   53 type  2   force =     0.00000000    0.00000000    0.00000000
     atom   54 type  2   force =     0.00000000    0.00000000    0.00000000
     atom   55 type  1   force =     0.00000000    0.00000000    0.00000000
     atom   56 type  1   force =     0.00000000    0.00000000    0.00000000
     atom   57 type  2   force =     0.00000000    0.00000000    0.00000000
     atom   58 type  2   force =     0.00000000    0.00000000    0.00000000
     atom   59 type  2   force =     0.00000000    0.00000000    0.00000000
     atom   60 type  2   force =     0.00000000    0.00000000    0.00000000
     atom   61 type  1   force =     0.00000000    0.00000000    0.00000000
     atom   62 type  1   force =     0.00000000    0.00000000    0.00000000
     atom   63 type  2   force =     0.00000000    0.00000000    0.00000000
     atom   64 type  2   force =     0.00000000    0.00000000    0.00000000
     atom   65 type  2   force =     0.00000000    0.00000000    0.00000000
     atom   66 type  2   force =     0.00000000    0.00000000    0.00000000
     atom   67 type  1   force =     0.00000000    0.00000000    0.00000000
     atom   68 type  1   force =     0.00000000    0.00000000    0.00000000
     atom   69 type  2   force =     0.00000000    0.00000000    0.00000000
     atom   70 type  2   force =     0.00000000    0.00000000    0.00000000
     atom   71 type  2   force =     0.00000000    0.00000000    0.00000000
     atom   72 type  2   force =     0.00000000    0.00000000    0.00000000
     atom   73 type  1   force =     0.00000000    0.00000000    0.00000000
     atom   74 type  1   force =     0.00000000    0.00000000    0.00000000
     atom   75 type  2   force =     0.00000000    0.00000000    0.00000000
     atom   76 type  2   force =     0.00000000    0.00000000    0.00000000
     atom   77 type  2   force =     0.00000000    0.00000000    0.00000000
     atom   78 type  2   force =     0.00000000    0.00000000    0.00000000
     atom   79 type  1   force =     0.00000000    0.00000000    0.00000000
     atom   80 type  1   force =     0.00000000    0.00000000    0.00000000
     atom   81 type  2   force =     0.00000000    0.00000000    0.00000000
     atom   82 type  2   force =     0.00000000    0.00000000    0.00000000
     atom   83 type  2   force =     0.00000000    0.00000000    0.00000000
     atom   84 type  2   force =     0.00000000    0.00000000    0.00000000
     atom   85 type  1   force =     0.00000000    0.00000000    0.00000000
     atom   86 type  2   force =     0.00000000    0.00000000    0.00000000
     atom   87 type  2   force =     0.00000000    0.00000000    0.00000000
     atom   88 type  2   force =     0.00000000    0.00000000    0.00000000
     atom   89 type  2   force =     0.00000000    0.00000000    0.00000000
     atom   90 type  1   force =     0.00000000    0.00000000    0.00000000
     atom   91 type  1   force =     0.00000000    0.00000000    0.00000000
     atom   92 type  2   force =     0.00000000    0.00000000    0.00000000
     atom   93 type  2   force =     0.00000000    0.00000000    0.00000000
     atom   94 type  2   force =     0.00000000    0.00000000    0.00000000
     atom   95 type  2   force =     0.00000000    0.00000000    0.00000000
     atom   96 type  3   force =     0.00000000    0.00000000    0.00000000
     The SCF correction term to forces
     atom    1 type  1   force =     0.00000622    0.00001364    0.00009372
     atom    2 type  1   force =     0.00000372    0.00006787    0.00010408
     atom    3 type  2   force =     0.00000835    0.00002272    0.00003302
     atom    4 type  2   force =    -0.00000970    0.00002075    0.00003823
     atom    5 type  2   force =    -0.00000672    0.00000521    0.00004089
     atom    6 type  2   force =     0.00000654    0.00001700    0.00003122
     atom    7 type  1   force =     0.00002861    0.00002143    0.00002610
     atom    8 type  1   force =    -0.00001123    0.00007642   -0.00006378
     atom    9 type  2   force =     0.00001395    0.00002786    0.00001774
     atom   10 type  2   force =    -0.00001635    0.00002954    0.00001656
     atom   11 type  2   force =    -0.00000190    0.00001301   -0.00001417
     atom   12 type  2   force =    -0.00000037    0.00001732   -0.00001392
     atom   13 type  1   force =     0.00004298    0.00003954   -0.00008874
     atom   14 type  1   force =    -0.00004166    0.00007893   -0.00007346
     atom   15 type  2   force =     0.00001120    0.00003196   -0.00003450
     atom   16 type  2   force =    -0.00001804    0.00001758   -0.00004096
     atom   17 type  2   force =    -0.00002792   -0.00000644   -0.00004274
     atom   18 type  2   force =     0.00000204    0.00001624   -0.00003594
     atom   19 type  1   force =     0.00001736    0.00003204   -0.00002886
     atom   20 type  1   force =    -0.00000764    0.00005066    0.00003071
     atom   21 type  2   force =     0.00001053    0.00002933   -0.00001605
     atom   22 type  2   force =    -0.00002555   -0.00000474   -0.00001304
     atom   23 type  2   force =    -0.00001691   -0.00000176    0.00001458
     atom   24 type  2   force =     0.00000762    0.00001916    0.00001862
     atom   25 type  1   force =     0.00000938   -0.00001239    0.00009707
     atom   26 type  1   force =    -0.00000463   -0.00006311    0.00009994
     atom   27 type  2   force =     0.00000787   -0.00002876    0.00003790
     atom   28 type  2   force =    -0.00000849   -0.00001127    0.00003805
     atom   29 type  2   force =     0.00000042   -0.00001255    0.00003372
     atom   30 type  2   force =     0.00000014   -0.00001109    0.00004038
     atom   31 type  1   force =     0.00002231    0.00000288    0.00006262
     atom   32 type  1   force =     0.00002217   -0.00007504   -0.00001695
     atom   33 type  2   force =     0.00001262   -0.00003735    0.00001706
     atom   34 type  2   force =    -0.00001624   -0.00001889    0.00001620
     atom   35 type  2   force =     0.00001368   -0.00001361   -0.00001711
     atom   36 type  2   force =    -0.00001341   -0.00000789   -0.00001317
     atom   37 type  1   force =     0.00002865   -0.00000996   -0.00007805
     atom   38 type  1   force =    -0.00001492   -0.00000157   -0.00014591
     atom   39 type  2   force =     0.00002286   -0.00004228   -0.00004187
     atom   40 type  2   force =    -0.00003306   -0.00001466   -0.00004221
     atom   41 type  2   force =     0.00001126   -0.00001058   -0.00003439
     atom   42 type  2   force =    -0.00002442   -0.00000970   -0.00006680
     atom   43 type  1   force =     0.00001577   -0.00002542   -0.00007755
     atom   44 type  1   force =    -0.00001864   -0.00004190    0.00005666
     atom   45 type  2   force =     0.00000268   -0.00003087   -0.00001164
     atom   46 type  2   force =    -0.00001793   -0.00000340   -0.00001058
     atom   47 type  2   force =    -0.00000049   -0.00000990    0.00001761
     atom   48 type  2   force =    -0.00001522   -0.00000419    0.00003809
     atom   49 type  1   force =    -0.00000645    0.00001314    0.00009185
     atom   50 type  1   force =     0.00000532    0.00005030    0.00007951
     atom   51 type  2   force =     0.00000224    0.00001332    0.00003261
     atom   52 type  2   force =    -0.00000083    0.00002499    0.00003207
     atom   53 type  2   force =    -0.00000923    0.00000595    0.00003159
     atom   54 type  2   force =     0.00000564    0.00001791    0.00003009
     atom   55 type  1   force =    -0.00002641    0.00001276    0.00002981
     atom   56 type  1   force =     0.00001326    0.00002886   -0.00001763
     atom   57 type  2   force =     0.00000080    0.00001881    0.00001701
     atom   58 type  2   force =     0.00000740    0.00002606    0.00001636
     atom   59 type  2   force =    -0.00000825   -0.00000585   -0.00001994
     atom   60 type  2   force =     0.00000333    0.00003238   -0.00001941
     atom   61 type  1   force =    -0.00004656    0.00000847   -0.00009182
     atom   62 type  1   force =     0.00002798    0.00000694   -0.00011035
     atom   63 type  2   force =     0.00000898    0.00002190   -0.00003441
     atom   64 type  2   force =     0.00000328    0.00002578   -0.00003258
     atom   65 type  2   force =     0.00001139   -0.00001385   -0.00005602
     atom   66 type  2   force =     0.00000234    0.00003442   -0.00002795
     atom   67 type  1   force =    -0.00001474    0.00002985   -0.00003041
     atom   68 type  1   force =     0.00001525    0.00003823    0.00004338
     atom   69 type  2   force =     0.00000701    0.00001261   -0.00001320
     atom   70 type  2   force =     0.00000753    0.00002171   -0.00001493
     atom   71 type  2   force =     0.00000997   -0.00000883    0.00003644
     atom   72 type  2   force =     0.00000431    0.00002262    0.00001686
     atom   73 type  1   force =    -0.00001060   -0.00001095    0.00012917
     atom   74 type  1   force =    -0.00000338   -0.00006654    0.00008136
     atom   75 type  2   force =     0.00000161   -0.00002605    0.00004076
     atom   76 type  2   force =    -0.00000108   -0.00001732    0.00003529
     atom   77 type  2   force =    -0.00001282   -0.00000703    0.00002695
     atom   78 type  2   force =     0.00001701   -0.00001165    0.00003485
     atom   79 type  1   force =    -0.00005670   -0.00000545    0.00002675
     atom   80 type  1   force =     0.00001884   -0.00009836   -0.00009948
     atom   81 type  2   force =    -0.00000686   -0.00003229    0.00000657
     atom   82 type  2   force =     0.00000461   -0.00002396    0.00000786
     atom   83 type  2   force =    -0.00001852    0.00000074   -0.00001994
     atom   84 type  2   force =     0.00003840   -0.00001054   -0.00001822
     atom   85 type  1   force =     0.00003725   -0.00008159   -0.00004819
     atom   86 type  2   force =    -0.00002125   -0.00002874   -0.00004718
     atom   87 type  2   force =     0.00001785   -0.00002168   -0.00004023
     atom   88 type  2   force =    -0.00001782    0.00001219   -0.00002972
     atom   89 type  2   force =     0.00004481   -0.00002032   -0.00003695
     atom   90 type  1   force =    -0.00001452   -0.00003969   -0.00000897
     atom   91 type  1   force =     0.00001091   -0.00004857    0.00006055
     atom   92 type  2   force =     0.00001135   -0.00000595    0.00000138
     atom   93 type  2   force =     0.00000405   -0.00001810   -0.00000263
     atom   94 type  2   force =    -0.00001179   -0.00000290    0.00002319
     atom   95 type  2   force =     0.00002213   -0.00001381    0.00001928
     atom   96 type  3   force =    -0.00000442    0.00000233   -0.00000781

     Total force =     0.029208     Total SCF correction =     0.000599

     Writing all to output data dir /tmp/neb_canonical_marc_96at_qe_VFe/image_05/tmp/image_05.save/ :
     XML data file, charge density, pseudopotentials, collected wavefunctions
 
     init_run     :      8.23s CPU     13.97s WALL (       1 calls)
     electrons    :    405.97s CPU    551.27s WALL (       1 calls)
     forces       :      3.93s CPU      5.36s WALL (       1 calls)

     Called by init_run:
     wfcinit      :      5.80s CPU      9.15s WALL (       1 calls)
     wfcinit:atom :      0.14s CPU      0.15s WALL (      16 calls)
     wfcinit:wfcr :      4.60s CPU      4.83s WALL (      16 calls)
     potinit      :      0.10s CPU      0.28s WALL (       1 calls)
     hinit0       :      2.06s CPU      2.26s WALL (       1 calls)

     Called by electrons:
     c_bands      :    350.90s CPU    452.26s WALL (      23 calls)
     sum_band     :     49.00s CPU     88.10s WALL (      23 calls)
     v_of_rho     :      1.12s CPU      0.80s WALL (      24 calls)
     v_h          :      0.52s CPU      0.24s WALL (      24 calls)
     v_xc         :      0.62s CPU      0.59s WALL (      25 calls)
     mix_rho      :      4.07s CPU      9.21s WALL (      23 calls)

     Called by c_bands:
     init_us_2    :      4.05s CPU      4.33s WALL (     768 calls)
     cegterg      :    300.26s CPU    301.15s WALL (     368 calls)

     Called by sum_band:
     sum_band:wei :      0.28s CPU      0.29s WALL (      23 calls)
     sum_band:loo :     48.32s CPU     87.27s WALL (      23 calls)
     sum_band:buf :     17.61s CPU     56.55s WALL (     368 calls)
     sum_band:ini :      2.01s CPU      2.07s WALL (     368 calls)

     Called by *egterg:
     cdiaghg      :     38.43s CPU     38.88s WALL (    1757 calls)
                                       38.86s GPU  (    1757 calls)
     cegterg:over :     40.62s CPU     40.67s WALL (    1389 calls)
     cegterg:upda :     15.36s CPU     15.35s WALL (    1389 calls)
     cegterg:last :     19.03s CPU     19.04s WALL (     727 calls)
     h_psi        :    167.17s CPU    167.88s WALL (    1773 calls)
     g_psi        :      0.50s CPU      0.50s WALL (    1389 calls)

     Called by h_psi:
     h_psi:calbec :      0.12s CPU      0.30s WALL (    1773 calls)
     vloc_psi     :    133.30s CPU    133.29s WALL (    1773 calls)
                                      133.27s GPU  (    1773 calls)
     add_vuspsi   :     32.73s CPU     33.19s WALL (    1773 calls)

     General routines
     calbec       :      0.12s CPU      0.30s WALL (    1837 calls)
     fft          :      0.01s CPU      0.04s WALL (     471 calls)
                                        0.04s GPU  (     471 calls)
     ffts         :      0.01s CPU      0.06s WALL (     640 calls)
                                        0.05s GPU  (     640 calls)
     fftw         :      0.87s CPU    118.72s WALL (   73868 calls)
                                      117.79s GPU  (   73868 calls)
     davcio       :      1.64s CPU    148.10s WALL (    1610 calls)
 
     Parallel routines
 
     PWSCF        :   7m 0.72s CPU   9m42.97s WALL

 
   This run was terminated on:  14:57:27  29May2026            

=------------------------------------------------------------------------------=
   JOB DONE.
=------------------------------------------------------------------------------=
