
     Program PWSCF v.7.5 starts on 29May2026 at 14:39:52 

     This program is part of the open-source Quantum ESPRESSO suite
     for quantum simulation of materials; please cite
         "P. Giannozzi et al., J. Phys.:Condens. Matter 21 395502 (2009);
         "P. Giannozzi et al., J. Phys.:Condens. Matter 29 465901 (2017);
         "P. Giannozzi et al., J. Chem. Phys. 152 154105 (2020);
          URL http://www.quantum-espresso.org", 
     in publications or presentations arising from this work. More details at
     http://www.quantum-espresso.org/quote

     Parallel version (MPI & OpenMP), running on       8 processor cores
     Number of MPI processes:                 1
     Threads/MPI process:                     8

     MPI processes distributed on     1 nodes
     262525 MiB available memory on the printing compute node when the environment starts
 
     Reading input from espresso.pwi
Warning: card &CELL ignored
Warning: card &FCP ignored
Warning: card &RISM ignored

     Current dimensions of program PWSCF are:
     Max number of different atomic species (ntypx) = 10
     Max number of k-points (npk) =  40000
     Max angular momentum in pseudopotentials (lmaxx) =  4
 
     Subspace diagonalization in iterative solution of the eigenvalue problem:
     a serial algorithm will be used

 
     G-vector sticks info
     --------------------
     sticks:   dense  smooth     PW     G-vecs:    dense   smooth      PW
     Sum        6591    6591   1755               553421   553421   76211
 
     Using Slab Decomposition
 


     bravais-lattice index     =            0
     lattice parameter (alat)  =      16.7921  a.u.
     unit-cell volume          =    8814.7061 (a.u.)^3
     number of atoms/cell      =           96
     number of atomic types    =            3
     number of electrons       =       881.00
     number of Kohn-Sham states=          529
     kinetic-energy cutoff     =      60.0000  Ry
     charge density cutoff     =     240.0000  Ry
     scf convergence threshold =      1.0E-07
     mixing beta               =       0.2000
     number of iterations used =           12  local-TF  mixing
     Exchange-correlation= PBE
                           (   1   4   3   4   0   0   0)

     GPU acceleration is ACTIVE.  1 visible GPUs per MPI rank


     GPU used by master process:

        Device Number: 0
        Device name: NVIDIA A100-SXM4-40GB
        Compute capability : 80
        Ratio of single to double precision performance  : 2
        Memory Clock Rate (KHz): 1215000
        Memory Bus Width (bits): 5120
        Peak Memory Bandwidth (GB/s): ******

     celldm(1)=  16.792106  celldm(2)=   0.000000  celldm(3)=   0.000000
     celldm(4)=   0.000000  celldm(5)=   0.000000  celldm(6)=   0.000000

     crystal axes: (cart. coord. in units of alat)
               a(1) = (   1.000000   0.000000   0.000000 )  
               a(2) = (   0.000000   1.221022   0.000000 )  
               a(3) = (   0.000000   0.000000   1.524646 )  

     reciprocal axes: (cart. coord. in units 2 pi/alat)
               b(1) = (  1.000000  0.000000  0.000000 )  
               b(2) = (  0.000000  0.818986  0.000000 )  
               b(3) = (  0.000000  0.000000  0.655890 )  


     PseudoPot. # 1 for Fe read from file:
     /opt/pp/oncv_pbe/Fe.upf
     MD5 check sum: a5f07f5dca5be6cacb81ceb54992e4ae
     Pseudo is Norm-conserving + core correction, Zval = 16.0
     Generated using ONCVPSP code by D. R. Hamann
     Using radial grid of 1426 points,  6 beta functions with: 
                l(1) =   0
                l(2) =   0
                l(3) =   1
                l(4) =   1
                l(5) =   2
                l(6) =   2

     PseudoPot. # 2 for S  read from file:
     /opt/pp/oncv_pbe/S.upf
     MD5 check sum: 6027e7704d67ae28863b2247926ce6f3
     Pseudo is Norm-conserving + core correction, Zval =  6.0
     Generated using ONCVPSP code by D. R. Hamann
     Using radial grid of 1146 points,  6 beta functions with: 
                l(1) =   0
                l(2) =   0
                l(3) =   1
                l(4) =   1
                l(5) =   2
                l(6) =   2

     PseudoPot. # 3 for H  read from file:
     /opt/pp/oncv_pbe/H.upf
     MD5 check sum: e96aa7e3e4a958db16958554ea960e2a
     Pseudo is Norm-conserving, Zval =  1.0
     Generated using ONCVPSP code by D. R. Hamann
     Using radial grid of 1166 points,  3 beta functions with: 
                l(1) =   0
                l(2) =   0
                l(3) =   1

     atomic species   valence    mass     pseudopotential
     Fe               16.00    55.84500     Fe( 1.00)
     S                 6.00    32.06000     S ( 1.00)
     H                 1.00     1.00800     H ( 1.00)

     Starting magnetic structure 
     atomic species   magnetization
     Fe              0.065
     S               0.000
     H               0.000

     No symmetry found


                                    s                        frac. trans.

      isym =  1     identity                                     

 cryst.   s( 1) = (     1          0          0      )
                  (     0          1          0      )
                  (     0          0          1      )

 cart.    s( 1) = (  1.0000000  0.0000000  0.0000000 )
                  (  0.0000000  1.0000000  0.0000000 )
                  (  0.0000000  0.0000000  1.0000000 )


   Cartesian axes

     site n.     atom                  positions (alat units)
         1        Fe     tau(   1) = (   0.0004782   0.0004475   0.0001556  )
         2        Fe     tau(   2) = (   0.2511208   0.3055696   0.1901534  )
         3        S      tau(   3) = (   0.1050043   0.2291719  -0.0001659  )
         4        S      tau(   4) = (   0.3968329   0.3819618   0.0000341  )
         5        S      tau(   5) = (   0.1470718   0.5338153   0.1905119  )
         6        S      tau(   6) = (   0.3545937   0.0767731   0.1904636  )
         7        Fe     tau(   7) = (   0.0005766  -0.0001173   0.3810141  )
         8        Fe     tau(   8) = (   0.2482384   0.3039670   0.5698354  )
         9        S      tau(   9) = (   0.1035672   0.2281033   0.3790458  )
        10        S      tau(  10) = (   0.3969895   0.3805543   0.3814091  )
        11        S      tau(  11) = (   0.1449378   0.5359871   0.5692551  )
        12        S      tau(  12) = (   0.3538220   0.0761010   0.5710026  )
        13        Fe     tau(  13) = (   0.0002038   0.0001692   0.7626581  )
        14        Fe     tau(  14) = (   0.2493125   0.3072582   0.9536529  )
        15        S      tau(  15) = (   0.1017763   0.2285054   0.7624016  )
        16        S      tau(  16) = (   0.3868268   0.3756027   0.7582187  )
        17        S      tau(  17) = (   0.1464748   0.5383873   0.9553376  )
        18        S      tau(  18) = (   0.3542524   0.0781217   0.9533567  )
        19        Fe     tau(  19) = (   0.0007967   0.0011747   1.1437989  )
        20        Fe     tau(  20) = (   0.2511651   0.3062135   1.3339073  )
        21        S      tau(  21) = (   0.1045202   0.2293159   1.1444448  )
        22        S      tau(  22) = (   0.3971508   0.3823212   1.1427137  )
        23        S      tau(  23) = (   0.1470725   0.5343324   1.3343555  )
        24        S      tau(  24) = (   0.3546582   0.0774827   1.3345488  )
        25        Fe     tau(  25) = (   0.0004916   0.6110906   0.0002422  )
        26        Fe     tau(  26) = (   0.2505956   0.9161268   0.1910625  )
        27        S      tau(  27) = (   0.1043792   0.8397740   0.0005135  )
        28        S      tau(  28) = (   0.3965914   0.9929434   0.0005799  )
        29        S      tau(  29) = (   0.1467338   1.1447367   0.1902545  )
        30        S      tau(  30) = (   0.3540178   0.6875256   0.1907200  )
        31        Fe     tau(  31) = (   0.0001919   0.6109101   0.3788574  )
        32        Fe     tau(  32) = (   0.2489413   0.9160196   0.5712491  )
        33        S      tau(  33) = (   0.1026155   0.8403490   0.3805564  )
        34        S      tau(  34) = (   0.3959401   0.9925447   0.3813621  )
        35        S      tau(  35) = (   0.1465007   1.1442343   0.5721728  )
        36        S      tau(  36) = (   0.3457628   0.6873037   0.5664003  )
        37        Fe     tau(  37) = (   0.0000945   0.6112611   0.7625546  )
        38        Fe     tau(  38) = (   0.2483467   0.9177230   0.9556743  )
        39        S      tau(  39) = (   0.1028313   0.8405136   0.7630650  )
        40        S      tau(  40) = (   0.4001693   0.9915885   0.7632604  )
        41        S      tau(  41) = (   0.1463732   1.1457574   0.9530704  )
        42        S      tau(  42) = (   0.3451673   0.6910185   0.9606858  )
        43        Fe     tau(  43) = (   0.0001999   0.6117946   1.1463092  )
        44        Fe     tau(  44) = (   0.2505171   0.9167747   1.3347662  )
        45        S      tau(  45) = (   0.1020095   0.8416175   1.1455318  )
        46        S      tau(  46) = (   0.3957178   0.9940717   1.1446472  )
        47        S      tau(  47) = (   0.1467143   1.1454608   1.3348509  )
        48        S      tau(  48) = (   0.3539671   0.6882331   1.3350563  )
        49        Fe     tau(  49) = (   0.5006149   0.0004770   0.0002067  )
        50        Fe     tau(  50) = (   0.7504772   0.3053492   0.1906081  )
        51        S      tau(  51) = (   0.6046251   0.2291571  -0.0000076  )
        52        S      tau(  52) = (   0.8966497   0.3820962   0.0000802  )
        53        S      tau(  53) = (   0.6470537   0.5339289   0.1902676  )
        54        S      tau(  54) = (   0.8544648   0.0765387   0.1902957  )
        55        Fe     tau(  55) = (   0.5004585   0.0001085   0.3811076  )
        56        Fe     tau(  56) = (   0.7532177   0.3047875   0.5701878  )
        57        S      tau(  57) = (   0.6049644   0.2281211   0.3808044  )
        58        S      tau(  58) = (   0.8989349   0.3810147   0.3787904  )
        59        S      tau(  59) = (   0.6565613   0.5321615   0.5641563  )
        60        S      tau(  60) = (   0.8552714   0.0759267   0.5711689  )
        61        Fe     tau(  61) = (   0.5011704   0.0043843   0.7624530  )
        62        Fe     tau(  62) = (   0.7526881   0.3057757   0.9542767  )
        63        S      tau(  63) = (   0.6103311   0.2297429   0.7615698  )
        64        S      tau(  64) = (   0.8985611   0.3823113   0.7624252  )
        65        S      tau(  65) = (   0.6558194   0.5331629   0.9596676  )
        66        S      tau(  66) = (   0.8549672   0.0767179   0.9536054  )
        67        Fe     tau(  67) = (   0.5004077   0.0013338   1.1439223  )
        68        Fe     tau(  68) = (   0.7505983   0.3059100   1.3338983  )
        69        S      tau(  69) = (   0.6049100   0.2292108   1.1437854  )
        70        S      tau(  70) = (   0.8991109   0.3820745   1.1453707  )
        71        S      tau(  71) = (   0.6470750   0.5344479   1.3347167  )
        72        S      tau(  72) = (   0.8546033   0.0772315   1.3346340  )
        73        Fe     tau(  73) = (   0.5006719   0.6110889   0.0002433  )
        74        Fe     tau(  74) = (   0.7498728   0.9159945   0.1914055  )
        75        S      tau(  75) = (   0.6043661   0.8401986   0.0003995  )
        76        S      tau(  76) = (   0.8960832   0.9928784   0.0003989  )
        77        S      tau(  77) = (   0.6465383   1.1447220   0.1907733  )
        78        S      tau(  78) = (   0.8537342   0.6880150   0.1907629  )
        79        Fe     tau(  79) = (   0.5007434   0.6100752   0.3855692  )
        80        Fe     tau(  80) = (   0.7493027   0.9173376   0.5717293  )
        81        S      tau(  81) = (   0.6030100   0.8402846   0.3825544  )
        82        S      tau(  82) = (   0.8971616   0.9931019   0.3809793  )
        83        S      tau(  83) = (   0.6468872   1.1459863   0.5712791  )
        84        S      tau(  84) = (   0.8525100   0.6854310   0.5709735  )
        85        Fe     tau(  85) = (   0.7493261   0.9180158   0.9538846  )
        86        S      tau(  86) = (   0.6043227   0.8463040   0.7631915  )
        87        S      tau(  87) = (   0.8964644   0.9925264   0.7627241  )
        88        S      tau(  88) = (   0.6468718   1.1467443   0.9539065  )
        89        S      tau(  89) = (   0.8525046   0.6857475   0.9545409  )
        90        Fe     tau(  90) = (   0.5002987   0.6115713   1.1391076  )
        91        Fe     tau(  91) = (   0.7497301   0.9165467   1.3340952  )
        92        S      tau(  92) = (   0.6028732   0.8414495   1.1428020  )
        93        S      tau(  93) = (   0.8971160   0.9940799   1.1446613  )
        94        S      tau(  94) = (   0.6464398   1.1453088   1.3343124  )
        95        S      tau(  95) = (   0.8536196   0.6884887   1.3344988  )
        96        H      tau(  96) = (   0.4128029   0.5326681   0.7283550  )

   Crystallographic axes

     site n.     atom                  positions (cryst. coord.)
         1        Fe     tau(   1) = (  0.0004782  0.0003665  0.0001020  )
         2        Fe     tau(   2) = (  0.2511208  0.2502573  0.1247198  )
         3        S      tau(   3) = (  0.1050043  0.1876886 -0.0001088  )
         4        S      tau(   4) = (  0.3968329  0.3128214  0.0000224  )
         5        S      tau(   5) = (  0.1470718  0.4371873  0.1249549  )
         6        S      tau(   6) = (  0.3545937  0.0628761  0.1249232  )
         7        Fe     tau(   7) = (  0.0005766 -0.0000961  0.2499034  )
         8        Fe     tau(   8) = (  0.2482384  0.2489448  0.3737494  )
         9        S      tau(   9) = (  0.1035672  0.1868134  0.2486124  )
        10        S      tau(  10) = (  0.3969895  0.3116687  0.2501625  )
        11        S      tau(  11) = (  0.1449378  0.4389660  0.3733688  )
        12        S      tau(  12) = (  0.3538220  0.0623257  0.3745150  )
        13        Fe     tau(  13) = (  0.0002038  0.0001385  0.5002200  )
        14        Fe     tau(  14) = (  0.2493125  0.2516402  0.6254916  )
        15        S      tau(  15) = (  0.1017763  0.1871428  0.5000517  )
        16        S      tau(  16) = (  0.3868268  0.3076134  0.4973082  )
        17        S      tau(  17) = (  0.1464748  0.4409317  0.6265965  )
        18        S      tau(  18) = (  0.3542524  0.0639806  0.6252973  )
        19        Fe     tau(  19) = (  0.0007967  0.0009621  0.7502065  )
        20        Fe     tau(  20) = (  0.2511651  0.2507847  0.8748967  )
        21        S      tau(  21) = (  0.1045202  0.1878066  0.7506301  )
        22        S      tau(  22) = (  0.3971508  0.3131158  0.7494947  )
        23        S      tau(  23) = (  0.1470725  0.4376108  0.8751907  )
        24        S      tau(  24) = (  0.3546582  0.0634572  0.8753175  )
        25        Fe     tau(  25) = (  0.0004916  0.5004748  0.0001588  )
        26        Fe     tau(  26) = (  0.2505956  0.7502951  0.1253160  )
        27        S      tau(  27) = (  0.1043792  0.6877633  0.0003368  )
        28        S      tau(  28) = (  0.3965914  0.8132070  0.0003804  )
        29        S      tau(  29) = (  0.1467338  0.9375235  0.1247861  )
        30        S      tau(  30) = (  0.3540178  0.5630740  0.1250913  )
        31        Fe     tau(  31) = (  0.0001919  0.5003269  0.2484889  )
        32        Fe     tau(  32) = (  0.2489413  0.7502074  0.3746767  )
        33        S      tau(  33) = (  0.1026155  0.6882342  0.2496032  )
        34        S      tau(  34) = (  0.3959401  0.8128804  0.2501316  )
        35        S      tau(  35) = (  0.1465007  0.9371121  0.3752825  )
        36        S      tau(  36) = (  0.3457628  0.5628922  0.3714964  )
        37        Fe     tau(  37) = (  0.0000945  0.5006144  0.5001521  )
        38        Fe     tau(  38) = (  0.2483467  0.7516025  0.6268174  )
        39        S      tau(  39) = (  0.1028313  0.6883690  0.5004869  )
        40        S      tau(  40) = (  0.4001693  0.8120973  0.5006150  )
        41        S      tau(  41) = (  0.1463732  0.9383595  0.6251095  )
        42        S      tau(  42) = (  0.3451673  0.5659346  0.6301044  )
        43        Fe     tau(  43) = (  0.0001999  0.5010513  0.7518529  )
        44        Fe     tau(  44) = (  0.2505171  0.7508258  0.8754600  )
        45        S      tau(  45) = (  0.1020095  0.6892731  0.7513431  )
        46        S      tau(  46) = (  0.3957178  0.8141310  0.7507629  )
        47        S      tau(  47) = (  0.1467143  0.9381166  0.8755156  )
        48        S      tau(  48) = (  0.3539671  0.5636534  0.8756503  )
        49        Fe     tau(  49) = (  0.5006149  0.0003907  0.0001355  )
        50        Fe     tau(  50) = (  0.7504772  0.2500768  0.1250180  )
        51        S      tau(  51) = (  0.6046251  0.1876765 -0.0000050  )
        52        S      tau(  52) = (  0.8966497  0.3129315  0.0000526  )
        53        S      tau(  53) = (  0.6470537  0.4372804  0.1247947  )
        54        S      tau(  54) = (  0.8544648  0.0626842  0.1248131  )
        55        Fe     tau(  55) = (  0.5004585  0.0000888  0.2499647  )
        56        Fe     tau(  56) = (  0.7532177  0.2496168  0.3739806  )
        57        S      tau(  57) = (  0.6049644  0.1868280  0.2497659  )
        58        S      tau(  58) = (  0.8989349  0.3120458  0.2484449  )
        59        S      tau(  59) = (  0.6565613  0.4358329  0.3700246  )
        60        S      tau(  60) = (  0.8552714  0.0621829  0.3746240  )
        61        Fe     tau(  61) = (  0.5011704  0.0035907  0.5000854  )
        62        Fe     tau(  62) = (  0.7526881  0.2504261  0.6259007  )
        63        S      tau(  63) = (  0.6103311  0.1881562  0.4995062  )
        64        S      tau(  64) = (  0.8985611  0.3131077  0.5000672  )
        65        S      tau(  65) = (  0.6558194  0.4366530  0.6294366  )
        66        S      tau(  66) = (  0.8549672  0.0628309  0.6254604  )
        67        Fe     tau(  67) = (  0.5004077  0.0010924  0.7502874  )
        68        Fe     tau(  68) = (  0.7505983  0.2505361  0.8748908  )
        69        S      tau(  69) = (  0.6049100  0.1877204  0.7501976  )
        70        S      tau(  70) = (  0.8991109  0.3129138  0.7512374  )
        71        S      tau(  71) = (  0.6470750  0.4377054  0.8754276  )
        72        S      tau(  72) = (  0.8546033  0.0632516  0.8753733  )
        73        Fe     tau(  73) = (  0.5006719  0.5004733  0.0001596  )
        74        Fe     tau(  74) = (  0.7498728  0.7501868  0.1255410  )
        75        S      tau(  75) = (  0.6043661  0.6881111  0.0002620  )
        76        S      tau(  76) = (  0.8960832  0.8131537  0.0002616  )
        77        S      tau(  77) = (  0.6465383  0.9375115  0.1251263  )
        78        S      tau(  78) = (  0.8537342  0.5634748  0.1251195  )
        79        Fe     tau(  79) = (  0.5007434  0.4996432  0.2528911  )
        80        Fe     tau(  80) = (  0.7493027  0.7512868  0.3749916  )
        81        S      tau(  81) = (  0.6030100  0.6881815  0.2509137  )
        82        S      tau(  82) = (  0.8971616  0.8133368  0.2498806  )
        83        S      tau(  83) = (  0.6468872  0.9385469  0.3746964  )
        84        S      tau(  84) = (  0.8525100  0.5613585  0.3744959  )
        85        Fe     tau(  85) = (  0.7493261  0.7518422  0.6256436  )
        86        S      tau(  86) = (  0.6043227  0.6931112  0.5005698  )
        87        S      tau(  87) = (  0.8964644  0.8128654  0.5002632  )
        88        S      tau(  88) = (  0.6468718  0.9391677  0.6256579  )
        89        S      tau(  89) = (  0.8525046  0.5616178  0.6260740  )
        90        Fe     tau(  90) = (  0.5002987  0.5008684  0.7471295  )
        91        Fe     tau(  91) = (  0.7497301  0.7506390  0.8750199  )
        92        S      tau(  92) = (  0.6028732  0.6891355  0.7495526  )
        93        S      tau(  93) = (  0.8971160  0.8141377  0.7507721  )
        94        S      tau(  94) = (  0.6464398  0.9379921  0.8751624  )
        95        S      tau(  95) = (  0.8536196  0.5638627  0.8752846  )
        96        H      tau(  96) = (  0.4128029  0.4362478  0.4777209  )

     number of k points=     8  Marzari-Vanderbilt smearing, width (Ry)=  0.0150
                       cart. coord. in units 2pi/alat
        k(    1) = (   0.0000000   0.0000000   0.0000000), wk =   0.0833333
        k(    2) = (   0.0000000   0.0000000   0.2186301), wk =   0.1666667
        k(    3) = (   0.0000000  -0.4094931   0.0000000), wk =   0.0833333
        k(    4) = (   0.0000000  -0.4094931   0.2186301), wk =   0.1666667
        k(    5) = (  -0.5000000   0.0000000   0.0000000), wk =   0.0833333
        k(    6) = (  -0.5000000   0.0000000   0.2186301), wk =   0.1666667
        k(    7) = (  -0.5000000  -0.4094931   0.0000000), wk =   0.0833333
        k(    8) = (  -0.5000000  -0.4094931   0.2186301), wk =   0.1666667

                       cryst. coord.
        k(    1) = (   0.0000000   0.0000000   0.0000000), wk =   0.0833333
        k(    2) = (   0.0000000   0.0000000   0.3333333), wk =   0.1666667
        k(    3) = (   0.0000000  -0.5000000   0.0000000), wk =   0.0833333
        k(    4) = (   0.0000000  -0.5000000   0.3333333), wk =   0.1666667
        k(    5) = (  -0.5000000   0.0000000   0.0000000), wk =   0.0833333
        k(    6) = (  -0.5000000   0.0000000   0.3333333), wk =   0.1666667
        k(    7) = (  -0.5000000  -0.5000000   0.0000000), wk =   0.0833333
        k(    8) = (  -0.5000000  -0.5000000   0.3333333), wk =   0.1666667

     Dense  grid:   553421 G-vectors     FFT dimensions: (  90, 108, 128)

     Dynamical RAM for                 wfc:     558.42 MB

     Dynamical RAM for     wfc (w. buffer):     558.42 MB

     Dynamical RAM for           str. fact:      25.33 MB

     Dynamical RAM for           local pot:       0.00 MB

     Dynamical RAM for          nlocal pot:    1810.39 MB

     Dynamical RAM for                qrad:       3.73 MB

     Dynamical RAM for          rho,v,vnew:     107.62 MB

     Dynamical RAM for               rhoin:      35.87 MB

     Dynamical RAM for           G-vectors:      35.89 MB

     Dynamical RAM for          h,s,v(r/c):      51.24 MB

     Dynamical RAM for          <psi|beta>:      13.84 MB

     Dynamical RAM for                 psi:    1116.84 MB

     Dynamical RAM for                hpsi:    1116.84 MB

     Dynamical RAM for      wfcinit/wfcrot:    1123.25 MB

     Estimated static dynamical RAM per process >       2.61 GB

     Estimated max dynamical RAM per process >       4.85 GB
     Generating pointlists ...
     new r_m :   0.1009 (alat units)  1.6942 (a.u.) for type    1
     new r_m :   0.0668 (alat units)  1.1220 (a.u.) for type    2
     new r_m :   0.0668 (alat units)  1.1220 (a.u.) for type    3

     Initial potential from superposition of free atoms

     starting charge     880.9860, renormalised to     881.0000
     Starting wfcs are  567 randomized atomic wfcs

     total cpu time spent up to now is       12.9 secs

     per-process dynamical memory:  1150.2 Mb

     Self-consistent Calculation
[tb_dev] Currently allocated     3.10E+01 Mbytes, locked:    0 /   3
[tb_pin] Currently allocated     0.00E+00 Mbytes, locked:    0 /   0

     iteration #  1     ecut=    60.00 Ry     beta= 0.20
     Davidson diagonalization with overlap

---- Real-time Memory Report at c_bands before calling an iterative solver
          3224 MiB given to the printing process from OS
          1157 MiB allocation reported by mallinfo(arena+hblkhd)
        259632 MiB available memory on the node where the printing process lives
     GPU memory used/free/total (MiB): 5716 / 34725 / 40442
------------------
     ethr =  1.00E-02,  avg # of iterations =  2.0

     total cpu time spent up to now is       35.6 secs

     total energy              =   -9183.17891179 Ry
     estimated scf accuracy    <      16.52477539 Ry

     total magnetization       =     1.88 Bohr mag/cell
     absolute magnetization    =    13.27 Bohr mag/cell
[tb_dev] Currently allocated     0.00E+00 Mbytes, locked:    0 /   0
[tb_pin] Currently allocated     0.00E+00 Mbytes, locked:    0 /   0

     iteration #  2     ecut=    60.00 Ry     beta= 0.20
     Davidson diagonalization with overlap

---- Real-time Memory Report at c_bands before calling an iterative solver
          3259 MiB given to the printing process from OS
          1157 MiB allocation reported by mallinfo(arena+hblkhd)
        259535 MiB available memory on the node where the printing process lives
     GPU memory used/free/total (MiB): 8500 / 31941 / 40442
------------------
     ethr =  1.88E-03,  avg # of iterations =  2.0

     total cpu time spent up to now is       56.2 secs

     total energy              =   -9183.32774523 Ry
     estimated scf accuracy    <       5.82228146 Ry

     total magnetization       =     1.30 Bohr mag/cell
     absolute magnetization    =    12.53 Bohr mag/cell
[tb_dev] Currently allocated     0.00E+00 Mbytes, locked:    0 /   0
[tb_pin] Currently allocated     0.00E+00 Mbytes, locked:    0 /   0

     iteration #  3     ecut=    60.00 Ry     beta= 0.20
     Davidson diagonalization with overlap

---- Real-time Memory Report at c_bands before calling an iterative solver
          3319 MiB given to the printing process from OS
          1230 MiB allocation reported by mallinfo(arena+hblkhd)
        259386 MiB available memory on the node where the printing process lives
     GPU memory used/free/total (MiB): 8506 / 31935 / 40442
------------------
     ethr =  6.61E-04,  avg # of iterations =  2.0

     total cpu time spent up to now is       76.1 secs

     total energy              =   -9183.33365328 Ry
     estimated scf accuracy    <       1.62798165 Ry

     total magnetization       =     1.35 Bohr mag/cell
     absolute magnetization    =    10.38 Bohr mag/cell
[tb_dev] Currently allocated     0.00E+00 Mbytes, locked:    0 /   0
[tb_pin] Currently allocated     0.00E+00 Mbytes, locked:    0 /   0

     iteration #  4     ecut=    60.00 Ry     beta= 0.20
     Davidson diagonalization with overlap

---- Real-time Memory Report at c_bands before calling an iterative solver
          3344 MiB given to the printing process from OS
          1230 MiB allocation reported by mallinfo(arena+hblkhd)
        259357 MiB available memory on the node where the printing process lives
     GPU memory used/free/total (MiB): 8506 / 31935 / 40442
------------------
     ethr =  1.85E-04,  avg # of iterations =  4.6
     Minimization algorithm failed to find Fermi energy: reverting to bisection
     Possible cause: smearing is larger than the electronic band-gap.

     total cpu time spent up to now is       98.1 secs

     total energy              =   -9183.46995054 Ry
     estimated scf accuracy    <       0.17536035 Ry

     total magnetization       =     1.92 Bohr mag/cell
     absolute magnetization    =     6.26 Bohr mag/cell
[tb_dev] Currently allocated     0.00E+00 Mbytes, locked:    0 /   0
[tb_pin] Currently allocated     0.00E+00 Mbytes, locked:    0 /   0

     iteration #  5     ecut=    60.00 Ry     beta= 0.20
     Davidson diagonalization with overlap

---- Real-time Memory Report at c_bands before calling an iterative solver
          3402 MiB given to the printing process from OS
          1230 MiB allocation reported by mallinfo(arena+hblkhd)
        259386 MiB available memory on the node where the printing process lives
     GPU memory used/free/total (MiB): 8506 / 31935 / 40442
------------------
     c_bands:  1 eigenvalues not converged
     ethr =  1.99E-05,  avg # of iterations =  8.9
     Minimization algorithm failed to find Fermi energy: reverting to bisection
     Possible cause: smearing is larger than the electronic band-gap.

     total cpu time spent up to now is      125.6 secs

     total energy              =   -9183.49935329 Ry
     estimated scf accuracy    <       0.04466074 Ry

     total magnetization       =     1.70 Bohr mag/cell
     absolute magnetization    =     4.86 Bohr mag/cell
[tb_dev] Currently allocated     0.00E+00 Mbytes, locked:    0 /   0
[tb_pin] Currently allocated     0.00E+00 Mbytes, locked:    0 /   0

     iteration #  6     ecut=    60.00 Ry     beta= 0.20
     Davidson diagonalization with overlap

---- Real-time Memory Report at c_bands before calling an iterative solver
          3436 MiB given to the printing process from OS
          1230 MiB allocation reported by mallinfo(arena+hblkhd)
        259397 MiB available memory on the node where the printing process lives
     GPU memory used/free/total (MiB): 8508 / 31933 / 40442
------------------
     ethr =  5.07E-06,  avg # of iterations =  2.2

     total cpu time spent up to now is      146.0 secs

     total energy              =   -9183.50367924 Ry
     estimated scf accuracy    <       0.02143116 Ry

     total magnetization       =     1.63 Bohr mag/cell
     absolute magnetization    =     4.08 Bohr mag/cell
[tb_dev] Currently allocated     0.00E+00 Mbytes, locked:    0 /   0
[tb_pin] Currently allocated     0.00E+00 Mbytes, locked:    0 /   0

     iteration #  7     ecut=    60.00 Ry     beta= 0.20
     Davidson diagonalization with overlap

---- Real-time Memory Report at c_bands before calling an iterative solver
          3470 MiB given to the printing process from OS
          1230 MiB allocation reported by mallinfo(arena+hblkhd)
        260506 MiB available memory on the node where the printing process lives
     GPU memory used/free/total (MiB): 8508 / 31933 / 40442
------------------
     c_bands:  1 eigenvalues not converged
     ethr =  2.43E-06,  avg # of iterations =  2.6

     total cpu time spent up to now is      166.3 secs

     total energy              =   -9183.50508738 Ry
     estimated scf accuracy    <       0.00553516 Ry

     total magnetization       =     1.60 Bohr mag/cell
     absolute magnetization    =     3.35 Bohr mag/cell
[tb_dev] Currently allocated     0.00E+00 Mbytes, locked:    0 /   0
[tb_pin] Currently allocated     0.00E+00 Mbytes, locked:    0 /   0

     iteration #  8     ecut=    60.00 Ry     beta= 0.20
     Davidson diagonalization with overlap

---- Real-time Memory Report at c_bands before calling an iterative solver
          3504 MiB given to the printing process from OS
          1230 MiB allocation reported by mallinfo(arena+hblkhd)
        259683 MiB available memory on the node where the printing process lives
     GPU memory used/free/total (MiB): 8508 / 31933 / 40442
------------------
     ethr =  6.28E-07,  avg # of iterations =  3.6
     Minimization algorithm failed to find Fermi energy: reverting to bisection
     Possible cause: smearing is larger than the electronic band-gap.

     total cpu time spent up to now is      188.1 secs

     total energy              =   -9183.50624547 Ry
     estimated scf accuracy    <       0.00064592 Ry

     total magnetization       =     1.59 Bohr mag/cell
     absolute magnetization    =     2.65 Bohr mag/cell
[tb_dev] Currently allocated     0.00E+00 Mbytes, locked:    0 /   0
[tb_pin] Currently allocated     0.00E+00 Mbytes, locked:    0 /   0

     iteration #  9     ecut=    60.00 Ry     beta= 0.20
     Davidson diagonalization with overlap

---- Real-time Memory Report at c_bands before calling an iterative solver
          3537 MiB given to the printing process from OS
          1230 MiB allocation reported by mallinfo(arena+hblkhd)
        259077 MiB available memory on the node where the printing process lives
     GPU memory used/free/total (MiB): 8514 / 31927 / 40442
------------------
     ethr =  7.33E-08,  avg # of iterations =  5.7

     total cpu time spent up to now is      211.1 secs

     total energy              =   -9183.50641359 Ry
     estimated scf accuracy    <       0.00050151 Ry

     total magnetization       =     1.56 Bohr mag/cell
     absolute magnetization    =     2.47 Bohr mag/cell
[tb_dev] Currently allocated     0.00E+00 Mbytes, locked:    0 /   0
[tb_pin] Currently allocated     0.00E+00 Mbytes, locked:    0 /   0

     iteration # 10     ecut=    60.00 Ry     beta= 0.20
     Davidson diagonalization with overlap

---- Real-time Memory Report at c_bands before calling an iterative solver
          3571 MiB given to the printing process from OS
          1230 MiB allocation reported by mallinfo(arena+hblkhd)
        262826 MiB available memory on the node where the printing process lives
     GPU memory used/free/total (MiB): 8524 / 31917 / 40442
------------------
     ethr =  5.69E-08,  avg # of iterations =  1.6

     total cpu time spent up to now is      231.0 secs

     total energy              =   -9183.50649817 Ry
     estimated scf accuracy    <       0.00021738 Ry

     total magnetization       =     1.50 Bohr mag/cell
     absolute magnetization    =     2.30 Bohr mag/cell
[tb_dev] Currently allocated     0.00E+00 Mbytes, locked:    0 /   0
[tb_pin] Currently allocated     0.00E+00 Mbytes, locked:    0 /   0

     iteration # 11     ecut=    60.00 Ry     beta= 0.20
     Davidson diagonalization with overlap

---- Real-time Memory Report at c_bands before calling an iterative solver
          3605 MiB given to the printing process from OS
          1230 MiB allocation reported by mallinfo(arena+hblkhd)
        259861 MiB available memory on the node where the printing process lives
     GPU memory used/free/total (MiB): 8524 / 31917 / 40442
------------------
     ethr =  2.47E-08,  avg # of iterations =  4.1

     total cpu time spent up to now is      253.0 secs

     total energy              =   -9183.50657324 Ry
     estimated scf accuracy    <       0.00006465 Ry

     total magnetization       =     1.44 Bohr mag/cell
     absolute magnetization    =     2.12 Bohr mag/cell
[tb_dev] Currently allocated     0.00E+00 Mbytes, locked:    0 /   0
[tb_pin] Currently allocated     0.00E+00 Mbytes, locked:    0 /   0

     iteration # 12     ecut=    60.00 Ry     beta= 0.20
     Davidson diagonalization with overlap

---- Real-time Memory Report at c_bands before calling an iterative solver
          3639 MiB given to the printing process from OS
          1230 MiB allocation reported by mallinfo(arena+hblkhd)
        259688 MiB available memory on the node where the printing process lives
     GPU memory used/free/total (MiB): 8524 / 31917 / 40442
------------------
     ethr =  7.34E-09,  avg # of iterations =  3.1

     total cpu time spent up to now is      274.4 secs

     total energy              =   -9183.50658445 Ry
     estimated scf accuracy    <       0.00005665 Ry

     total magnetization       =     1.41 Bohr mag/cell
     absolute magnetization    =     2.06 Bohr mag/cell
[tb_dev] Currently allocated     0.00E+00 Mbytes, locked:    0 /   0
[tb_pin] Currently allocated     0.00E+00 Mbytes, locked:    0 /   0

     iteration # 13     ecut=    60.00 Ry     beta= 0.20
     Davidson diagonalization with overlap

---- Real-time Memory Report at c_bands before calling an iterative solver
          3672 MiB given to the printing process from OS
          1230 MiB allocation reported by mallinfo(arena+hblkhd)
        259094 MiB available memory on the node where the printing process lives
     GPU memory used/free/total (MiB): 8524 / 31917 / 40442
------------------
     ethr =  6.43E-09,  avg # of iterations =  3.0

     total cpu time spent up to now is      295.4 secs

     total energy              =   -9183.50659878 Ry
     estimated scf accuracy    <       0.00001636 Ry

     total magnetization       =     1.38 Bohr mag/cell
     absolute magnetization    =     2.02 Bohr mag/cell
[tb_dev] Currently allocated     0.00E+00 Mbytes, locked:    0 /   0
[tb_pin] Currently allocated     0.00E+00 Mbytes, locked:    0 /   0

     iteration # 14     ecut=    60.00 Ry     beta= 0.20
     Davidson diagonalization with overlap

---- Real-time Memory Report at c_bands before calling an iterative solver
          3706 MiB given to the printing process from OS
          1230 MiB allocation reported by mallinfo(arena+hblkhd)
        259096 MiB available memory on the node where the printing process lives
     GPU memory used/free/total (MiB): 8524 / 31917 / 40442
------------------
     ethr =  1.86E-09,  avg # of iterations =  4.8

     total cpu time spent up to now is      318.9 secs

     total energy              =   -9183.50661095 Ry
     estimated scf accuracy    <       0.00000479 Ry

     total magnetization       =     1.34 Bohr mag/cell
     absolute magnetization    =     1.97 Bohr mag/cell
[tb_dev] Currently allocated     0.00E+00 Mbytes, locked:    0 /   0
[tb_pin] Currently allocated     0.00E+00 Mbytes, locked:    0 /   0

     iteration # 15     ecut=    60.00 Ry     beta= 0.20
     Davidson diagonalization with overlap

---- Real-time Memory Report at c_bands before calling an iterative solver
          3706 MiB given to the printing process from OS
          1230 MiB allocation reported by mallinfo(arena+hblkhd)
        258998 MiB available memory on the node where the printing process lives
     GPU memory used/free/total (MiB): 8542 / 31899 / 40442
------------------
     ethr =  5.43E-10,  avg # of iterations =  2.0
     Minimization algorithm failed to find Fermi energy: reverting to bisection
     Possible cause: smearing is larger than the electronic band-gap.

     total cpu time spent up to now is      339.8 secs

     total energy              =   -9183.50661245 Ry
     estimated scf accuracy    <       0.00000329 Ry

     total magnetization       =     1.33 Bohr mag/cell
     absolute magnetization    =     1.96 Bohr mag/cell
[tb_dev] Currently allocated     0.00E+00 Mbytes, locked:    0 /   0
[tb_pin] Currently allocated     0.00E+00 Mbytes, locked:    0 /   0

     iteration # 16     ecut=    60.00 Ry     beta= 0.20
     Davidson diagonalization with overlap

---- Real-time Memory Report at c_bands before calling an iterative solver
          3706 MiB given to the printing process from OS
          1230 MiB allocation reported by mallinfo(arena+hblkhd)
        258606 MiB available memory on the node where the printing process lives
     GPU memory used/free/total (MiB): 8542 / 31899 / 40442
------------------
     ethr =  3.73E-10,  avg # of iterations =  4.8

     total cpu time spent up to now is      363.6 secs

     total energy              =   -9183.50661618 Ry
     estimated scf accuracy    <       0.00000124 Ry

     total magnetization       =     1.30 Bohr mag/cell
     absolute magnetization    =     1.93 Bohr mag/cell
[tb_dev] Currently allocated     0.00E+00 Mbytes, locked:    0 /   0
[tb_pin] Currently allocated     0.00E+00 Mbytes, locked:    0 /   0

     iteration # 17     ecut=    60.00 Ry     beta= 0.20
     Davidson diagonalization with overlap

---- Real-time Memory Report at c_bands before calling an iterative solver
          3707 MiB given to the printing process from OS
          1230 MiB allocation reported by mallinfo(arena+hblkhd)
        258077 MiB available memory on the node where the printing process lives
     GPU memory used/free/total (MiB): 8542 / 31899 / 40442
------------------
     ethr =  1.41E-10,  avg # of iterations =  3.1

     total cpu time spent up to now is      385.1 secs

     total energy              =   -9183.50661700 Ry
     estimated scf accuracy    <       0.00000067 Ry

     total magnetization       =     1.29 Bohr mag/cell
     absolute magnetization    =     1.92 Bohr mag/cell
[tb_dev] Currently allocated     0.00E+00 Mbytes, locked:    0 /   0
[tb_pin] Currently allocated     0.00E+00 Mbytes, locked:    0 /   0

     iteration # 18     ecut=    60.00 Ry     beta= 0.20
     Davidson diagonalization with overlap

---- Real-time Memory Report at c_bands before calling an iterative solver
          3707 MiB given to the printing process from OS
          1230 MiB allocation reported by mallinfo(arena+hblkhd)
        262896 MiB available memory on the node where the printing process lives
     GPU memory used/free/total (MiB): 8542 / 31899 / 40442
------------------
     ethr =  7.65E-11,  avg # of iterations =  4.9

     total cpu time spent up to now is      407.6 secs

     total energy              =   -9183.50661725 Ry
     estimated scf accuracy    <       0.00000030 Ry

     total magnetization       =     1.29 Bohr mag/cell
     absolute magnetization    =     1.91 Bohr mag/cell
[tb_dev] Currently allocated     0.00E+00 Mbytes, locked:    0 /   0
[tb_pin] Currently allocated     0.00E+00 Mbytes, locked:    0 /   0

     iteration # 19     ecut=    60.00 Ry     beta= 0.20
     Davidson diagonalization with overlap

---- Real-time Memory Report at c_bands before calling an iterative solver
          3707 MiB given to the printing process from OS
          1230 MiB allocation reported by mallinfo(arena+hblkhd)
        259057 MiB available memory on the node where the printing process lives
     GPU memory used/free/total (MiB): 8542 / 31899 / 40442
------------------
     ethr =  3.44E-11,  avg # of iterations =  5.2

     total cpu time spent up to now is      433.4 secs

     total energy              =   -9183.50661799 Ry
     estimated scf accuracy    <       0.00000011 Ry

     total magnetization       =     1.28 Bohr mag/cell
     absolute magnetization    =     1.90 Bohr mag/cell
[tb_dev] Currently allocated     0.00E+00 Mbytes, locked:    0 /   0
[tb_pin] Currently allocated     0.00E+00 Mbytes, locked:    0 /   0

     iteration # 20     ecut=    60.00 Ry     beta= 0.20
     Davidson diagonalization with overlap

---- Real-time Memory Report at c_bands before calling an iterative solver
          3707 MiB given to the printing process from OS
          1230 MiB allocation reported by mallinfo(arena+hblkhd)
        262489 MiB available memory on the node where the printing process lives
     GPU memory used/free/total (MiB): 8542 / 31899 / 40442
------------------
     ethr =  1.29E-11,  avg # of iterations =  2.9
 
     Magnetic moment per site  (integrated on atomic sphere of radius R)
     atom   1 (R=0.101)  charge= 13.8297  magn= -0.0007
     atom   2 (R=0.101)  charge= 13.8313  magn= -0.0019
     atom   3 (R=0.067)  charge=  1.1252  magn= -0.0000
     atom   4 (R=0.067)  charge=  1.1245  magn=  0.0002
     atom   5 (R=0.067)  charge=  1.1242  magn=  0.0000
     atom   6 (R=0.067)  charge=  1.1250  magn= -0.0000
     atom   7 (R=0.101)  charge= 13.8326  magn=  0.0047
     atom   8 (R=0.101)  charge= 13.8371  magn=  0.0186
     atom   9 (R=0.067)  charge=  1.1259  magn= -0.0003
     atom  10 (R=0.067)  charge=  1.1240  magn= -0.0015
     atom  11 (R=0.067)  charge=  1.1243  magn= -0.0007
     atom  12 (R=0.067)  charge=  1.1248  magn= -0.0002
     atom  13 (R=0.101)  charge= 13.8339  magn=  0.0080
     atom  14 (R=0.101)  charge= 13.8282  magn=  0.0123
     atom  15 (R=0.067)  charge=  1.1249  magn= -0.0004
     atom  16 (R=0.067)  charge=  1.1332  magn=  0.0027
     atom  17 (R=0.067)  charge=  1.1241  magn= -0.0004
     atom  18 (R=0.067)  charge=  1.1247  magn= -0.0002
     atom  19 (R=0.101)  charge= 13.8321  magn=  0.0048
     atom  20 (R=0.101)  charge= 13.8300  magn= -0.0034
     atom  21 (R=0.067)  charge=  1.1253  magn= -0.0002
     atom  22 (R=0.067)  charge=  1.1246  magn= -0.0018
     atom  23 (R=0.067)  charge=  1.1241  magn= -0.0001
     atom  24 (R=0.067)  charge=  1.1251  magn= -0.0000
     atom  25 (R=0.101)  charge= 13.8263  magn=  0.0175
     atom  26 (R=0.101)  charge= 13.8302  magn=  0.0001
     atom  27 (R=0.067)  charge=  1.1249  magn= -0.0001
     atom  28 (R=0.067)  charge=  1.1248  magn=  0.0002
     atom  29 (R=0.067)  charge=  1.1243  magn=  0.0002
     atom  30 (R=0.067)  charge=  1.1242  magn= -0.0009
     atom  31 (R=0.101)  charge= 13.8350  magn=  0.0360
     atom  32 (R=0.101)  charge= 13.8262  magn=  0.0262
     atom  33 (R=0.067)  charge=  1.1244  magn=  0.0001
     atom  34 (R=0.067)  charge=  1.1248  magn= -0.0008
     atom  35 (R=0.067)  charge=  1.1248  magn=  0.0000
     atom  36 (R=0.067)  charge=  1.1264  magn=  0.0073
     atom  37 (R=0.101)  charge= 13.8266  magn=  0.0004
     atom  38 (R=0.101)  charge= 13.8294  magn=  0.0499
     atom  39 (R=0.067)  charge=  1.1238  magn= -0.0001
     atom  40 (R=0.067)  charge=  1.1223  magn= -0.0000
     atom  41 (R=0.067)  charge=  1.1251  magn=  0.0001
     atom  42 (R=0.067)  charge=  1.1273  magn=  0.0120
     atom  43 (R=0.101)  charge= 13.8346  magn=  0.0397
     atom  44 (R=0.101)  charge= 13.8305  magn= -0.0042
     atom  45 (R=0.067)  charge=  1.1250  magn=  0.0001
     atom  46 (R=0.067)  charge=  1.1248  magn= -0.0011
     atom  47 (R=0.067)  charge=  1.1243  magn=  0.0002
     atom  48 (R=0.067)  charge=  1.1241  magn= -0.0009
     atom  49 (R=0.101)  charge= 13.8299  magn=  0.0070
     atom  50 (R=0.101)  charge= 13.8306  magn= -0.0035
     atom  51 (R=0.067)  charge=  1.1252  magn=  0.0002
     atom  52 (R=0.067)  charge=  1.1244  magn= -0.0001
     atom  53 (R=0.067)  charge=  1.1238  magn= -0.0008
     atom  54 (R=0.067)  charge=  1.1248  magn=  0.0002
     atom  55 (R=0.101)  charge= 13.8307  magn= -0.0080
     atom  56 (R=0.101)  charge= 13.8317  magn=  0.0518
     atom  57 (R=0.067)  charge=  1.1247  magn= -0.0010
     atom  58 (R=0.067)  charge=  1.1256  magn=  0.0001
     atom  59 (R=0.067)  charge=  1.1269  magn=  0.0129
     atom  60 (R=0.067)  charge=  1.1255  magn=  0.0000
     atom  61 (R=0.101)  charge= 13.8192  magn=  0.0095
     atom  62 (R=0.101)  charge= 13.8297  magn=  0.0384
     atom  63 (R=0.067)  charge=  1.1235  magn= -0.0001
     atom  64 (R=0.067)  charge=  1.1250  magn= -0.0000
     atom  65 (R=0.067)  charge=  1.1265  magn=  0.0122
     atom  66 (R=0.067)  charge=  1.1256  magn= -0.0000
     atom  67 (R=0.101)  charge= 13.8304  magn= -0.0083
     atom  68 (R=0.101)  charge= 13.8296  magn= -0.0037
     atom  69 (R=0.067)  charge=  1.1253  magn= -0.0011
     atom  70 (R=0.067)  charge=  1.1254  magn=  0.0001
     atom  71 (R=0.067)  charge=  1.1237  magn= -0.0009
     atom  72 (R=0.067)  charge=  1.1250  magn=  0.0002
     atom  73 (R=0.101)  charge= 13.8258  magn= -0.0453
     atom  74 (R=0.101)  charge= 13.8278  magn= -0.0060
     atom  75 (R=0.067)  charge=  1.1250  magn=  0.0003
     atom  76 (R=0.067)  charge=  1.1242  magn=  0.0000
     atom  77 (R=0.067)  charge=  1.1244  magn= -0.0000
     atom  78 (R=0.067)  charge=  1.1250  magn= -0.0001
     atom  79 (R=0.101)  charge= 13.8026  magn=  0.3519
     atom  80 (R=0.101)  charge= 13.8229  magn=  0.0304
     atom  81 (R=0.067)  charge=  1.1244  magn= -0.0016
     atom  82 (R=0.067)  charge=  1.1255  magn= -0.0001
     atom  83 (R=0.067)  charge=  1.1248  magn= -0.0002
     atom  84 (R=0.067)  charge=  1.1231  magn= -0.0007
     atom  85 (R=0.101)  charge= 13.8231  magn=  0.0259
     atom  86 (R=0.067)  charge=  1.1269  magn=  0.0084
     atom  87 (R=0.067)  charge=  1.1244  magn= -0.0005
     atom  88 (R=0.067)  charge=  1.1253  magn= -0.0002
     atom  89 (R=0.067)  charge=  1.1232  magn= -0.0010
     atom  90 (R=0.101)  charge= 13.7999  magn=  0.4109
     atom  91 (R=0.101)  charge= 13.8276  magn= -0.0049
     atom  92 (R=0.067)  charge=  1.1249  magn= -0.0018
     atom  93 (R=0.067)  charge=  1.1256  magn= -0.0001
     atom  94 (R=0.067)  charge=  1.1244  magn= -0.0000
     atom  95 (R=0.067)  charge=  1.1250  magn= -0.0000
     atom  96 (R=0.067)  charge=  0.6595  magn=  0.0011

     total cpu time spent up to now is      454.1 secs

     End of self-consistent calculation

 ------ SPIN UP ------------


          k = 0.0000 0.0000 0.0000 ( 69157 PWs)   bands (ev):

   -75.3748 -75.3161 -74.9466 -74.9367 -74.9317 -74.9313 -74.8976 -74.8950
   -74.8939 -74.8920 -74.8766 -74.8755 -74.8640 -74.8565 -74.8557 -74.8534
   -74.8530 -74.8523 -74.8519 -74.8503 -74.8491 -74.8488 -74.8477 -74.8472
   -74.8471 -74.8465 -74.8425 -74.8423 -74.8399 -74.8391 -74.8379 -41.4417
   -41.4176 -41.3675 -41.3375 -41.1771 -41.1526 -41.0287 -41.0145 -40.9807
   -40.9745 -40.9675 -40.9603 -40.9598 -40.9521 -40.9469 -40.9354 -40.9337
   -40.9323 -40.9321 -40.9312 -40.9302 -40.9288 -40.9274 -40.9265 -40.9258
   -40.9248 -40.9223 -40.9221 -40.9212 -40.9203 -40.9200 -40.9148 -40.9132
   -40.9119 -40.9048 -40.8926 -40.8878 -40.8865 -40.8742 -40.8464 -40.8417
   -40.8403 -40.8390 -40.8369 -40.8303 -40.8243 -40.8101 -40.8092 -40.8050
   -40.8011 -40.7973 -40.7963 -40.7953 -40.7932 -40.7924 -40.7912 -40.7907
   -40.7886 -40.7876 -40.7852 -40.7843 -40.7835 -40.7813 -40.7806 -40.7784
   -40.7774 -40.7757 -40.7736 -40.7727 -40.7725 -40.7719 -40.7714 -40.7699
   -40.7624 -40.7578 -40.7570 -40.7515 -40.7509 -40.7491 -40.7482 -40.7464
   -40.7446 -40.7426 -40.7410 -40.7399 -40.7388 -40.7352 -40.7349 -40.7336
   -40.7329 -40.7290 -40.7284 -40.7237  -4.3716  -3.8620  -3.8271  -3.4810
    -3.4467  -3.0793  -3.0594  -3.0479  -3.0192  -2.9821  -2.9104  -2.6843
    -2.6622  -2.6562  -2.6482  -2.6207  -2.5675  -2.5461  -2.5380  -2.4894
    -2.4715  -2.3630  -2.3459  -2.3298  -2.3129  -2.2353  -2.2266  -2.0974
    -2.0816  -2.0110  -1.9817  -1.9381  -1.4171  -1.3179  -1.0413  -0.9447
    -0.9013  -0.8638  -0.6453  -0.5832  -0.5337  -0.4547  -0.4528  -0.3838
    -0.3496  -0.2823  -0.2630  -0.2468  -0.0861  -0.0517  -0.0288   0.0891
     0.0981   0.2639   0.2796   0.2993   0.3008   0.3590   0.3956   0.4435
     0.4827   0.4948   0.6199   0.6646   4.4807   4.7037   4.7337   4.9084
     5.1255   5.1543   5.1567   5.1740   5.1928   5.2245   5.2495   5.2643
     5.2717   5.3011   5.3053   5.3193   5.4139   5.5372   5.5507   5.6551
     5.6860   5.6911   5.7203   5.7602   5.8521   5.8804   5.8886   5.9188
     5.9255   5.9285   5.9485   5.9587   5.9774   6.0179   6.0279   6.0597
     6.0756   6.1721   6.2323   6.2809   6.5347   6.5737   6.5999   6.6046
     6.7096   6.7556   6.7696   6.8152   6.8250   6.8306   6.8423   6.8857
     6.9637   6.9790   7.0122   7.0743   7.1421   7.1426   7.1712   7.1769
     7.1903   7.2107   7.2212   7.2440   7.3037   7.3466   7.3601   7.4488
     7.6719   7.7867   7.8008   7.8015   7.8155   7.8191   7.8439   7.8514
     7.8569   7.8593   7.8686   7.8723   7.8810   7.8911   7.8985   7.9007
     7.9374   7.9508   7.9892   8.0760   8.1353   8.1624   8.1867   8.2409
     8.2750   8.2965   8.3000   8.3394   8.3608   8.4059   8.4555   8.4615
     8.4842   8.4968   8.5010   8.5240   8.5338   8.5355   8.5801   8.6131
     8.6184   8.6274   8.6588   8.6782   8.6805   8.7362   8.7372   8.7499
     8.7534   8.7817   8.8120   8.8157   8.8482   8.8765   8.9022   8.9419
     8.9485   8.9701   9.0356   9.1528   9.2496   9.3380   9.3403   9.3691
     9.3956   9.4270   9.4766   9.4863   9.5063   9.5490   9.5585   9.5787
     9.5833   9.6065   9.6142   9.6147   9.6504   9.6613   9.8449   9.8554
     9.8881   9.9779  10.0639  10.1735  10.2155  10.2242  10.3654  10.3868
    10.4003  10.4184  10.4666  10.6015  10.6727  10.6795  10.7224  10.7456
    10.7514  10.7933  10.8185  10.8260  10.8347  10.8362  10.8512  10.8665
    10.8754  10.8794  10.8871  10.8960  10.9100  10.9580  10.9592  10.9741
    11.0015  11.0416  11.1065  11.1266  11.1282  11.1594  11.1659  11.1792
    11.1962  11.2229  11.2573  11.2632  11.2713  11.2793  11.2801  11.2855
    11.2901  11.2944  11.3089  11.3175  11.3423  11.3609  11.3714  11.3804
    11.3848  11.3904  11.3940  11.4041  11.4224  11.4274  11.4768  11.4811
    11.4977  11.5157  11.5234  11.5875  11.6033  11.6147  11.6463  11.6641
    11.6780  11.6800  11.6844  11.6950  11.7119  11.7394  11.7471  11.7935
    11.8131  11.8498  11.8874  11.9080  11.9133  11.9384  11.9442  11.9466
    11.9751  11.9764  11.9940  12.0048  12.0693  12.0763  12.1007  12.1040
    12.1532  12.1809  12.1869  12.2407  12.2672  12.2705  12.2889  12.3350
    12.3502  13.0781  13.1225  13.2736  13.3221  13.3372  13.3546  13.3578
    13.4255  13.4385  13.4993  13.6344  13.6410  13.6445  13.6479  13.6829
    13.6961  13.7331  13.7473  13.7909  13.8174  13.8217  13.8264  13.8393
    13.8478  13.8693  13.8803  13.9097  13.9260  13.9283  13.9412  13.9533
    13.9669  14.0069  14.0498  14.0925  14.1009  14.1407  14.1518  14.1576
    14.1653  14.1666  14.1773  14.1853  14.2300  14.2440  14.2732  14.2915
    14.3359  14.3419  14.3627  14.3782  14.3954  14.4223  14.4336  14.4407
    14.4850  14.5458  14.5473  14.6473  14.6774  14.6946  14.7307  14.7544
    14.7610  14.7731  14.7882  14.8104  14.8150  14.8355  14.8759  14.8810
    14.9383  14.9431  14.9533  14.9840  15.0016  15.0573  15.0667  15.1387
    15.1723  15.2394  15.2530  15.2766  15.3559  15.3940  15.4145  15.4662
    15.4923

     occupation numbers 
     1.0000   1.0000   1.0000   1.0000   1.0000   1.0000   1.0000   1.0000
     1.0000   1.0000   1.0000   1.0000   1.0000   1.0000   1.0000   1.0000
     1.0000   1.0000   1.0000   1.0000   1.0000   1.0000   1.0000   1.0000
     1.0000   1.0000   1.0000   1.0000   1.0000   1.0000   1.0000   1.0000
     1.0000   1.0000   1.0000   1.0000   1.0000   1.0000   1.0000   1.0000
     1.0000   1.0000   1.0000   1.0000   1.0000   1.0000   1.0000   1.0000
     1.0000   1.0000   1.0000   1.0000   1.0000   1.0000   1.0000   1.0000
     1.0000   1.0000   1.0000   1.0000   1.0000   1.0000   1.0000   1.0000
     1.0000   1.0000   1.0000   1.0000   1.0000   1.0000   1.0000   1.0000
     1.0000   1.0000   1.0000   1.0000   1.0000   1.0000   1.0000   1.0000
     1.0000   1.0000   1.0000   1.0000   1.0000   1.0000   1.0000   1.0000
     1.0000   1.0000   1.0000   1.0000   1.0000   1.0000   1.0000   1.0000
     1.0000   1.0000   1.0000   1.0000   1.0000   1.0000   1.0000   1.0000
     1.0000   1.0000   1.0000   1.0000   1.0000   1.0000   1.0000   1.0000
     1.0000   1.0000   1.0000   1.0000   1.0000   1.0000   1.0000   1.0000
     1.0000   1.0000   1.0000   1.0000   1.0000   1.0000   1.0000   1.0000
     1.0000   1.0000   1.0000   1.0000   1.0000   1.0000   1.0000   1.0000
     1.0000   1.0000   1.0000   1.0000   1.0000   1.0000   1.0000   1.0000
     1.0000   1.0000   1.0000   1.0000   1.0000   1.0000   1.0000   1.0000
     1.0000   1.0000   1.0000   1.0000   1.0000   1.0000   1.0000   1.0000
     1.0000   1.0000   1.0000   1.0000   1.0000   1.0000   1.0000   1.0000
     1.0000   1.0000   1.0000   1.0000   1.0000   1.0000   1.0000   1.0000
     1.0000   1.0000   1.0000   1.0000   1.0000   1.0000   1.0000   1.0000
     1.0000   1.0000   1.0000   1.0000   1.0000   1.0000   1.0000   1.0000
     1.0000   1.0000   1.0000   1.0000   1.0000   1.0000   1.0000   1.0000
     1.0000   1.0000   1.0000   1.0000   1.0000   1.0000   1.0000   1.0000
     1.0000   1.0000   1.0000   1.0000   1.0000   1.0000   1.0000   1.0000
     1.0000   1.0000   1.0000   1.0000   1.0000   1.0000   1.0000   1.0000
     1.0000   1.0000   1.0000   1.0000   1.0000   1.0000   1.0000   1.0000
     1.0000   1.0000   1.0000   1.0000   1.0000   1.0000   1.0000   1.0000
     1.0000   1.0000   1.0000   1.0000   1.0000   1.0000   1.0000   1.0000
     1.0000   1.0000   1.0000   1.0000   1.0000   1.0000   1.0000   1.0000
     1.0000   1.0000   1.0000   1.0000   1.0000   1.0000   1.0000   1.0000
     1.0000   1.0000   1.0000   1.0000   1.0000   1.0000   1.0000   1.0000
     1.0000   1.0000   1.0000   1.0000   1.0000   1.0000   1.0000   1.0000
     1.0000   1.0000   1.0000   1.0000   1.0000   1.0000   1.0000   1.0000
     1.0000   1.0000   1.0000   1.0000   1.0000   1.0000   1.0000   1.0000
     1.0000   1.0000   1.0000   1.0000   1.0000   1.0000   1.0000   1.0000
     1.0000   1.0000   1.0000   1.0000   1.0000   1.0000   1.0000   1.0000
     1.0000   1.0000   1.0000   1.0000   1.0000   1.0000   1.0000   1.0000
     1.0000   1.0000   1.0000   1.0000   1.0000   1.0000   1.0000   1.0000
     1.0000   1.0000   1.0000   1.0000   1.0000   1.0000   1.0000   1.0000
     1.0000   1.0000   1.0000   1.0000   1.0000   1.0000   1.0000   1.0000
     1.0000   1.0000   1.0000   1.0000   1.0000   1.0000   1.0000   1.0000
     1.0000   1.0000   1.0000   1.0000   1.0000   1.0000   1.0000   1.0000
     1.0000   1.0000   1.0000   1.0000   1.0000   1.0000   1.0000   1.0000
     1.0000   1.0000   1.0000   1.0000   1.0000   1.0000   1.0000   1.0000
     1.0000   1.0000   1.0000   1.0000   1.0000   1.0000   1.0000   1.0000
     1.0000   1.0000   1.0000   1.0000   1.0000   1.0000   1.0000   1.0000
     1.0000   1.0000   1.0000   1.0000   1.0000   1.0000   1.0000   1.0000
     1.0000   1.0000   1.0000   1.0000   1.0000   1.0000   1.0001   1.0001
     1.0002   1.0002   1.0002   1.0003   1.0004   1.0008   1.0009   1.0025
     1.0037   1.0072   1.0135   1.0183   1.0198   1.0276   1.0297   1.0305
     1.0421   1.0426   1.0505   1.0555   1.0805   1.0819   1.0829   1.0825
     1.0564   1.0213   1.0115   0.8888   0.8076   0.7967   0.7335   0.5655
     0.5100   0.0000   0.0000   0.0000   0.0000   0.0000   0.0000   0.0000
     0.0000   0.0000   0.0000   0.0000   0.0000   0.0000   0.0000   0.0000
     0.0000   0.0000   0.0000   0.0000   0.0000   0.0000   0.0000   0.0000
     0.0000   0.0000   0.0000   0.0000   0.0000   0.0000   0.0000   0.0000
     0.0000   0.0000   0.0000   0.0000   0.0000   0.0000   0.0000   0.0000
     0.0000   0.0000   0.0000   0.0000   0.0000   0.0000   0.0000   0.0000
     0.0000   0.0000   0.0000   0.0000   0.0000   0.0000   0.0000   0.0000
     0.0000   0.0000   0.0000   0.0000   0.0000   0.0000   0.0000   0.0000
     0.0000   0.0000   0.0000   0.0000   0.0000   0.0000   0.0000   0.0000
     0.0000   0.0000   0.0000   0.0000   0.0000   0.0000   0.0000   0.0000
     0.0000   0.0000   0.0000   0.0000   0.0000   0.0000   0.0000   0.0000
     0.0000

          k = 0.0000 0.0000 0.2186 ( 69203 PWs)   bands (ev):

   -75.3750 -75.3163 -74.9467 -74.9368 -74.9319 -74.9315 -74.8977 -74.8952
   -74.8940 -74.8921 -74.8767 -74.8757 -74.8641 -74.8566 -74.8558 -74.8535
   -74.8531 -74.8524 -74.8520 -74.8504 -74.8493 -74.8489 -74.8478 -74.8474
   -74.8472 -74.8466 -74.8427 -74.8424 -74.8401 -74.8393 -74.8380 -41.4422
   -41.4176 -41.3679 -41.3375 -41.1774 -41.1530 -41.0290 -41.0149 -40.9810
   -40.9748 -40.9678 -40.9610 -40.9600 -40.9523 -40.9473 -40.9354 -40.9338
   -40.9325 -40.9323 -40.9312 -40.9302 -40.9294 -40.9277 -40.9269 -40.9261
   -40.9253 -40.9227 -40.9224 -40.9220 -40.9211 -40.9209 -40.9153 -40.9136
   -40.9127 -40.9053 -40.8929 -40.8883 -40.8865 -40.8743 -40.8467 -40.8421
   -40.8404 -40.8394 -40.8373 -40.8307 -40.8246 -40.8105 -40.8095 -40.8054
   -40.8017 -40.7977 -40.7966 -40.7949 -40.7939 -40.7926 -40.7915 -40.7912
   -40.7892 -40.7883 -40.7856 -40.7846 -40.7841 -40.7812 -40.7807 -40.7787
   -40.7779 -40.7762 -40.7741 -40.7733 -40.7727 -40.7724 -40.7720 -40.7699
   -40.7629 -40.7580 -40.7574 -40.7517 -40.7508 -40.7502 -40.7490 -40.7467
   -40.7437 -40.7427 -40.7412 -40.7395 -40.7380 -40.7357 -40.7344 -40.7339
   -40.7326 -40.7291 -40.7277 -40.7232  -4.3104  -4.1302  -3.4834  -3.4281
    -3.3953  -3.2787  -3.2506  -3.0630  -2.9647  -2.8851  -2.8271  -2.7907
    -2.7791  -2.7638  -2.5878  -2.5641  -2.5445  -2.5122  -2.4711  -2.4513
    -2.4317  -2.4205  -2.3106  -2.2967  -2.2797  -2.2255  -2.2131  -2.1263
    -2.1141  -2.0856  -1.9841  -1.9336  -1.3693  -1.2781  -1.2063  -1.0854
    -0.7890  -0.6611  -0.6058  -0.5748  -0.5670  -0.4890  -0.4838  -0.3999
    -0.3592  -0.3091  -0.2340  -0.2244  -0.1466  -0.0984   0.0525   0.1163
     0.1435   0.1964   0.2437   0.2841   0.3418   0.3607   0.3755   0.4381
     0.4857   0.5051   0.6235   0.6636   4.5049   4.7712   4.7916   4.8540
     4.9601   4.9971   5.1393   5.2318   5.2705   5.2867   5.3267   5.3568
     5.3691   5.3728   5.4068   5.4364   5.4637   5.5141   5.5226   5.5407
     5.5498   5.5592   5.5939   5.6028   5.6575   5.6893   5.8149   5.8308
     5.8931   5.9575   5.9620   5.9789   6.0070   6.0795   6.1457   6.1837
     6.3830   6.3981   6.4318   6.4565   6.4745   6.4899   6.5054   6.5291
     6.5916   6.6594   6.7038   6.7615   6.8054   6.8367   6.8645   6.8746
     6.9098   6.9299   6.9698   7.0272   7.0744   7.1197   7.2029   7.2448
     7.2710   7.2817   7.3001   7.3339   7.3514   7.4032   7.4269   7.4568
     7.4927   7.5171   7.6211   7.6769   7.7364   7.7610   7.7746   7.8439
     7.8685   7.8780   7.8894   7.9206   7.9505   7.9801   7.9903   8.0423
     8.0637   8.0854   8.1070   8.1211   8.1571   8.1946   8.2237   8.2425
     8.2869   8.3270   8.3425   8.3618   8.3714   8.3892   8.4024   8.4175
     8.4234   8.4468   8.4491   8.4722   8.4972   8.5089   8.5243   8.5391
     8.5776   8.5977   8.6200   8.6706   8.7068   8.7315   8.7675   8.7968
     8.8001   8.8227   8.8451   8.8521   8.8597   8.8721   8.9245   9.0016
     9.0075   9.0754   9.1448   9.1754   9.2095   9.2311   9.2982   9.3632
     9.4100   9.4538   9.4683   9.4838   9.4921   9.5094   9.5232   9.5317
     9.5634   9.5918   9.6571   9.6694   9.6886   9.7913   9.8405   9.8663
     9.9666   9.9904  10.0457  10.1049  10.1954  10.2258  10.2572  10.3504
    10.4230  10.4472  10.4744  10.4904  10.4932  10.5255  10.5570  10.5785
    10.6727  10.6868  10.7182  10.7386  10.7548  10.7938  10.8009  10.8091
    10.8487  10.8620  10.8860  10.9048  10.9514  10.9704  10.9972  11.0131
    11.0844  11.1004  11.1124  11.1299  11.1452  11.1892  11.1977  11.2200
    11.2250  11.2384  11.2514  11.2564  11.2691  11.2746  11.2867  11.3027
    11.3233  11.3369  11.3511  11.3729  11.3797  11.4028  11.4104  11.4195
    11.4536  11.4598  11.4651  11.4706  11.4851  11.4909  11.4989  11.5064
    11.5118  11.5222  11.5424  11.5629  11.5907  11.6057  11.6176  11.6349
    11.6455  11.6776  11.7065  11.7257  11.7479  11.7583  11.7905  11.8171
    11.8313  11.8891  11.9098  11.9232  11.9310  11.9537  11.9742  11.9830
    11.9886  12.0021  12.0097  12.0303  12.0447  12.0576  12.0683  12.1079
    12.1316  12.1370  12.1540  12.1866  12.1946  12.2147  12.2345  12.3066
    12.3330  13.1090  13.1569  13.2543  13.2685  13.3491  13.4045  13.4419
    13.4674  13.4996  13.5019  13.5234  13.5452  13.5773  13.6081  13.6516
    13.6724  13.6953  13.7083  13.7198  13.7409  13.7725  13.7979  13.8028
    13.8204  13.8329  13.8449  13.8661  13.8757  13.9056  13.9352  13.9663
    13.9872  14.0430  14.0484  14.0630  14.1234  14.1504  14.1607  14.1811
    14.1923  14.2088  14.2156  14.2628  14.2807  14.3169  14.3487  14.3818
    14.4227  14.4294  14.4373  14.4453  14.4599  14.4690  14.4819  14.4903
    14.5056  14.5087  14.5548  14.5657  14.6074  14.6243  14.6356  14.6614
    14.6800  14.7018  14.7226  14.7961  14.8308  14.8527  14.8801  14.9245
    14.9717  14.9834  15.0114  15.0338  15.0604  15.1114  15.1406  15.1670
    15.1819  15.2146  15.2257  15.2830  15.2989  15.3294  15.3549  15.3989
    15.4207

     occupation numbers 
     1.0000   1.0000   1.0000   1.0000   1.0000   1.0000   1.0000   1.0000
     1.0000   1.0000   1.0000   1.0000   1.0000   1.0000   1.0000   1.0000
     1.0000   1.0000   1.0000   1.0000   1.0000   1.0000   1.0000   1.0000
     1.0000   1.0000   1.0000   1.0000   1.0000   1.0000   1.0000   1.0000
     1.0000   1.0000   1.0000   1.0000   1.0000   1.0000   1.0000   1.0000
     1.0000   1.0000   1.0000   1.0000   1.0000   1.0000   1.0000   1.0000
     1.0000   1.0000   1.0000   1.0000   1.0000   1.0000   1.0000   1.0000
     1.0000   1.0000   1.0000   1.0000   1.0000   1.0000   1.0000   1.0000
     1.0000   1.0000   1.0000   1.0000   1.0000   1.0000   1.0000   1.0000
     1.0000   1.0000   1.0000   1.0000   1.0000   1.0000   1.0000   1.0000
     1.0000   1.0000   1.0000   1.0000   1.0000   1.0000   1.0000   1.0000
     1.0000   1.0000   1.0000   1.0000   1.0000   1.0000   1.0000   1.0000
     1.0000   1.0000   1.0000   1.0000   1.0000   1.0000   1.0000   1.0000
     1.0000   1.0000   1.0000   1.0000   1.0000   1.0000   1.0000   1.0000
     1.0000   1.0000   1.0000   1.0000   1.0000   1.0000   1.0000   1.0000
     1.0000   1.0000   1.0000   1.0000   1.0000   1.0000   1.0000   1.0000
     1.0000   1.0000   1.0000   1.0000   1.0000   1.0000   1.0000   1.0000
     1.0000   1.0000   1.0000   1.0000   1.0000   1.0000   1.0000   1.0000
     1.0000   1.0000   1.0000   1.0000   1.0000   1.0000   1.0000   1.0000
     1.0000   1.0000   1.0000   1.0000   1.0000   1.0000   1.0000   1.0000
     1.0000   1.0000   1.0000   1.0000   1.0000   1.0000   1.0000   1.0000
     1.0000   1.0000   1.0000   1.0000   1.0000   1.0000   1.0000   1.0000
     1.0000   1.0000   1.0000   1.0000   1.0000   1.0000   1.0000   1.0000
     1.0000   1.0000   1.0000   1.0000   1.0000   1.0000   1.0000   1.0000
     1.0000   1.0000   1.0000   1.0000   1.0000   1.0000   1.0000   1.0000
     1.0000   1.0000   1.0000   1.0000   1.0000   1.0000   1.0000   1.0000
     1.0000   1.0000   1.0000   1.0000   1.0000   1.0000   1.0000   1.0000
     1.0000   1.0000   1.0000   1.0000   1.0000   1.0000   1.0000   1.0000
     1.0000   1.0000   1.0000   1.0000   1.0000   1.0000   1.0000   1.0000
     1.0000   1.0000   1.0000   1.0000   1.0000   1.0000   1.0000   1.0000
     1.0000   1.0000   1.0000   1.0000   1.0000   1.0000   1.0000   1.0000
     1.0000   1.0000   1.0000   1.0000   1.0000   1.0000   1.0000   1.0000
     1.0000   1.0000   1.0000   1.0000   1.0000   1.0000   1.0000   1.0000
     1.0000   1.0000   1.0000   1.0000   1.0000   1.0000   1.0000   1.0000
     1.0000   1.0000   1.0000   1.0000   1.0000   1.0000   1.0000   1.0000
     1.0000   1.0000   1.0000   1.0000   1.0000   1.0000   1.0000   1.0000
     1.0000   1.0000   1.0000   1.0000   1.0000   1.0000   1.0000   1.0000
     1.0000   1.0000   1.0000   1.0000   1.0000   1.0000   1.0000   1.0000
     1.0000   1.0000   1.0000   1.0000   1.0000   1.0000   1.0000   1.0000
     1.0000   1.0000   1.0000   1.0000   1.0000   1.0000   1.0000   1.0000
     1.0000   1.0000   1.0000   1.0000   1.0000   1.0000   1.0000   1.0000
     1.0000   1.0000   1.0000   1.0000   1.0000   1.0000   1.0000   1.0000
     1.0000   1.0000   1.0000   1.0000   1.0000   1.0000   1.0000   1.0000
     1.0000   1.0000   1.0000   1.0000   1.0000   1.0000   1.0000   1.0000
     1.0000   1.0000   1.0000   1.0000   1.0000   1.0000   1.0000   1.0000
     1.0000   1.0000   1.0000   1.0000   1.0000   1.0000   1.0000   1.0000
     1.0000   1.0000   1.0000   1.0000   1.0000   1.0000   1.0000   1.0000
     1.0000   1.0000   1.0000   1.0000   1.0000   1.0000   1.0000   1.0000
     1.0000   1.0000   1.0000   1.0000   1.0000   1.0000   1.0000   1.0000
     1.0000   1.0000   1.0000   1.0000   1.0000   1.0000   1.0000   1.0000
     1.0000   1.0000   1.0000   1.0000   1.0000   1.0000   1.0000   1.0001
     1.0001   1.0002   1.0003   1.0006   1.0009   1.0012   1.0023   1.0040
     1.0052   1.0138   1.0188   1.0227   1.0251   1.0332   1.0417   1.0455
     1.0481   1.0542   1.0577   1.0670   1.0728   1.0773   1.0802   1.0819
     1.0730   1.0696   1.0555   1.0120   0.9977   0.9558   0.9059   0.6702
     0.5729   0.0000   0.0000   0.0000   0.0000   0.0000   0.0000   0.0000
     0.0000   0.0000   0.0000   0.0000   0.0000   0.0000   0.0000   0.0000
     0.0000   0.0000   0.0000   0.0000   0.0000   0.0000   0.0000   0.0000
     0.0000   0.0000   0.0000   0.0000   0.0000   0.0000   0.0000   0.0000
     0.0000   0.0000   0.0000   0.0000   0.0000   0.0000   0.0000   0.0000
     0.0000   0.0000   0.0000   0.0000   0.0000   0.0000   0.0000   0.0000
     0.0000   0.0000   0.0000   0.0000   0.0000   0.0000   0.0000   0.0000
     0.0000   0.0000   0.0000   0.0000   0.0000   0.0000   0.0000   0.0000
     0.0000   0.0000   0.0000   0.0000   0.0000   0.0000   0.0000   0.0000
     0.0000   0.0000   0.0000   0.0000   0.0000   0.0000   0.0000   0.0000
     0.0000   0.0000   0.0000   0.0000   0.0000   0.0000   0.0000   0.0000
     0.0000

          k = 0.0000-0.4095 0.0000 ( 69190 PWs)   bands (ev):

   -75.3749 -75.3162 -74.9467 -74.9367 -74.9318 -74.9315 -74.8977 -74.8951
   -74.8940 -74.8921 -74.8766 -74.8756 -74.8641 -74.8565 -74.8558 -74.8534
   -74.8530 -74.8524 -74.8520 -74.8504 -74.8492 -74.8488 -74.8477 -74.8474
   -74.8473 -74.8467 -74.8427 -74.8424 -74.8400 -74.8393 -74.8380 -41.4417
   -41.4181 -41.3674 -41.3380 -41.1772 -41.1528 -41.0287 -41.0146 -40.9807
   -40.9744 -40.9675 -40.9604 -40.9600 -40.9521 -40.9471 -40.9349 -40.9334
   -40.9321 -40.9320 -40.9308 -40.9300 -40.9293 -40.9271 -40.9266 -40.9260
   -40.9250 -40.9221 -40.9218 -40.9217 -40.9213 -40.9205 -40.9149 -40.9131
   -40.9126 -40.9050 -40.8929 -40.8884 -40.8869 -40.8745 -40.8466 -40.8417
   -40.8403 -40.8391 -40.8370 -40.8306 -40.8245 -40.8101 -40.8091 -40.8050
   -40.8017 -40.7972 -40.7961 -40.7957 -40.7934 -40.7923 -40.7914 -40.7909
   -40.7888 -40.7878 -40.7852 -40.7843 -40.7838 -40.7818 -40.7804 -40.7783
   -40.7776 -40.7757 -40.7737 -40.7731 -40.7730 -40.7722 -40.7717 -40.7705
   -40.7626 -40.7583 -40.7578 -40.7519 -40.7510 -40.7501 -40.7493 -40.7470
   -40.7454 -40.7439 -40.7417 -40.7401 -40.7391 -40.7358 -40.7354 -40.7345
   -40.7336 -40.7290 -40.7287 -40.7241  -4.1487  -4.1174  -3.6622  -3.6339
    -3.6279  -3.5847  -2.9000  -2.7849  -2.7597  -2.7478  -2.6217  -2.5993
    -2.5805  -2.5694  -2.5665  -2.5488  -2.5414  -2.5202  -2.5179  -2.4973
    -2.4686  -2.4618  -2.4561  -2.4271  -2.3537  -2.3191  -2.3135  -2.2996
    -2.1997  -2.1740  -2.1541  -2.1271  -1.1257  -0.9925  -0.9504  -0.9066
    -0.8237  -0.6945  -0.6940  -0.6899  -0.6749  -0.6172  -0.6116  -0.4111
    -0.3698  -0.3435  -0.2848  -0.1008  -0.0175   0.0451   0.0638   0.0672
     0.0794   0.1627   0.1773   0.2190   0.3054   0.3227   0.4452   0.4458
     0.4672   0.4886   0.5941   0.6685   4.6654   4.8091   4.8791   5.2150
     5.2399   5.2562   5.2668   5.2847   5.3003   5.3106   5.3356   5.3376
     5.3512   5.3559   5.3621   5.3714   5.3747   5.3789   5.3883   5.3928
     5.4210   5.4335   5.4506   5.4548   5.4681   5.5155   5.6869   5.7340
     5.7703   5.8100   6.0720   6.1585   6.1678   6.1859   6.2545   6.2769
     6.3280   6.3309   6.3632   6.4021   6.4725   6.6184   6.6539   6.6631
     6.6645   6.6873   6.7182   6.7314   6.7556   6.7634   6.7763   6.7915
     6.8113   6.8537   6.9839   7.1052   7.1137   7.1847   7.2417   7.2463
     7.2854   7.3334   7.5104   7.5294   7.5671   7.5814   7.5900   7.6064
     7.6571   7.6905   7.7006   7.7131   7.7471   7.7600   7.8038   7.8226
     7.8606   7.8676   7.8740   7.8812   7.9008   7.9118   7.9176   7.9223
     7.9418   7.9566   7.9732   7.9882   7.9910   8.0144   8.0198   8.0528
     8.1022   8.1284   8.1551   8.1658   8.1944   8.2142   8.2694   8.2838
     8.3002   8.3537   8.3585   8.3750   8.3951   8.4398   8.4642   8.4868
     8.5269   8.6520   8.7822   8.7872   8.8196   8.8305   8.8335   8.8597
     8.8806   8.8873   8.9356   8.9924   9.0145   9.0590   9.0917   9.1305
     9.1462   9.1564   9.1722   9.1807   9.2256   9.3010   9.3530   9.3897
     9.4372   9.4485   9.4653   9.4997   9.5286   9.5313   9.5459   9.5593
     9.5639   9.5679   9.5844   9.5936   9.6303   9.7466   9.7950   9.8301
     9.8989  10.0198  10.0252  10.0898  10.1064  10.1189  10.3251  10.3514
    10.3821  10.4281  10.4930  10.5622  10.5870  10.5986  10.6371  10.6546
    10.7277  10.7339  10.7782  10.7864  10.8009  10.8091  10.8300  10.8315
    10.8517  10.8624  10.8839  10.9099  10.9548  10.9637  10.9780  10.9952
    11.0116  11.0180  11.0951  11.1227  11.1464  11.1727  11.2083  11.2197
    11.2658  11.2888  11.2984  11.3009  11.3059  11.3141  11.3194  11.3282
    11.3315  11.3361  11.3495  11.3774  11.3820  11.4010  11.4220  11.4334
    11.4485  11.4585  11.4642  11.4699  11.4788  11.5178  11.5218  11.5245
    11.5319  11.5398  11.5427  11.5640  11.6037  11.6077  11.6326  11.6516
    11.6700  11.6772  11.6915  11.7223  11.7634  11.7961  11.8082  11.8225
    11.8437  11.8534  11.8952  11.9047  11.9241  11.9269  11.9407  11.9620
    11.9667  11.9741  11.9836  11.9898  11.9934  12.0013  12.0171  12.0276
    12.0572  12.0720  12.0795  12.1021  12.1597  12.2273  12.2444  12.2639
    12.3313  13.1728  13.3079  13.3181  13.3504  13.3828  13.4010  13.5052
    13.5201  13.5577  13.5811  13.5841  13.6094  13.6151  13.6264  13.6399
    13.6761  13.6926  13.7307  13.7391  13.7586  13.7983  13.8431  13.8642
    13.8669  13.8715  13.9095  13.9164  13.9243  13.9347  13.9662  13.9860
    13.9929  14.0031  14.0116  14.0208  14.0322  14.0346  14.0519  14.0650
    14.0933  14.1290  14.1390  14.1660  14.1985  14.2096  14.2430  14.2493
    14.2511  14.2616  14.2675  14.2854  14.3065  14.3118  14.3280  14.3504
    14.4348  14.4390  14.4567  14.7218  14.7885  14.8290  14.8325  14.8540
    14.8792  14.8975  14.9064  14.9451  14.9718  15.0011  15.0359  15.0700
    15.0790  15.0855  15.0965  15.1134  15.1337  15.1507  15.1711  15.2006
    15.2170  15.2526  15.2569  15.2945  15.2995  15.3075  15.3283  15.3343
    15.3672

     occupation numbers 
     1.0000   1.0000   1.0000   1.0000   1.0000   1.0000   1.0000   1.0000
     1.0000   1.0000   1.0000   1.0000   1.0000   1.0000   1.0000   1.0000
     1.0000   1.0000   1.0000   1.0000   1.0000   1.0000   1.0000   1.0000
     1.0000   1.0000   1.0000   1.0000   1.0000   1.0000   1.0000   1.0000
     1.0000   1.0000   1.0000   1.0000   1.0000   1.0000   1.0000   1.0000
     1.0000   1.0000   1.0000   1.0000   1.0000   1.0000   1.0000   1.0000
     1.0000   1.0000   1.0000   1.0000   1.0000   1.0000   1.0000   1.0000
     1.0000   1.0000   1.0000   1.0000   1.0000   1.0000   1.0000   1.0000
     1.0000   1.0000   1.0000   1.0000   1.0000   1.0000   1.0000   1.0000
     1.0000   1.0000   1.0000   1.0000   1.0000   1.0000   1.0000   1.0000
     1.0000   1.0000   1.0000   1.0000   1.0000   1.0000   1.0000   1.0000
     1.0000   1.0000   1.0000   1.0000   1.0000   1.0000   1.0000   1.0000
     1.0000   1.0000   1.0000   1.0000   1.0000   1.0000   1.0000   1.0000
     1.0000   1.0000   1.0000   1.0000   1.0000   1.0000   1.0000   1.0000
     1.0000   1.0000   1.0000   1.0000   1.0000   1.0000   1.0000   1.0000
     1.0000   1.0000   1.0000   1.0000   1.0000   1.0000   1.0000   1.0000
     1.0000   1.0000   1.0000   1.0000   1.0000   1.0000   1.0000   1.0000
     1.0000   1.0000   1.0000   1.0000   1.0000   1.0000   1.0000   1.0000
     1.0000   1.0000   1.0000   1.0000   1.0000   1.0000   1.0000   1.0000
     1.0000   1.0000   1.0000   1.0000   1.0000   1.0000   1.0000   1.0000
     1.0000   1.0000   1.0000   1.0000   1.0000   1.0000   1.0000   1.0000
     1.0000   1.0000   1.0000   1.0000   1.0000   1.0000   1.0000   1.0000
     1.0000   1.0000   1.0000   1.0000   1.0000   1.0000   1.0000   1.0000
     1.0000   1.0000   1.0000   1.0000   1.0000   1.0000   1.0000   1.0000
     1.0000   1.0000   1.0000   1.0000   1.0000   1.0000   1.0000   1.0000
     1.0000   1.0000   1.0000   1.0000   1.0000   1.0000   1.0000   1.0000
     1.0000   1.0000   1.0000   1.0000   1.0000   1.0000   1.0000   1.0000
     1.0000   1.0000   1.0000   1.0000   1.0000   1.0000   1.0000   1.0000
     1.0000   1.0000   1.0000   1.0000   1.0000   1.0000   1.0000   1.0000
     1.0000   1.0000   1.0000   1.0000   1.0000   1.0000   1.0000   1.0000
     1.0000   1.0000   1.0000   1.0000   1.0000   1.0000   1.0000   1.0000
     1.0000   1.0000   1.0000   1.0000   1.0000   1.0000   1.0000   1.0000
     1.0000   1.0000   1.0000   1.0000   1.0000   1.0000   1.0000   1.0000
     1.0000   1.0000   1.0000   1.0000   1.0000   1.0000   1.0000   1.0000
     1.0000   1.0000   1.0000   1.0000   1.0000   1.0000   1.0000   1.0000
     1.0000   1.0000   1.0000   1.0000   1.0000   1.0000   1.0000   1.0000
     1.0000   1.0000   1.0000   1.0000   1.0000   1.0000   1.0000   1.0000
     1.0000   1.0000   1.0000   1.0000   1.0000   1.0000   1.0000   1.0000
     1.0000   1.0000   1.0000   1.0000   1.0000   1.0000   1.0000   1.0000
     1.0000   1.0000   1.0000   1.0000   1.0000   1.0000   1.0000   1.0000
     1.0000   1.0000   1.0000   1.0000   1.0000   1.0000   1.0000   1.0000
     1.0000   1.0000   1.0000   1.0000   1.0000   1.0000   1.0000   1.0000
     1.0000   1.0000   1.0000   1.0000   1.0000   1.0000   1.0000   1.0000
     1.0000   1.0000   1.0000   1.0000   1.0000   1.0000   1.0000   1.0000
     1.0000   1.0000   1.0000   1.0000   1.0000   1.0000   1.0000   1.0000
     1.0000   1.0000   1.0000   1.0000   1.0000   1.0000   1.0000   1.0000
     1.0000   1.0000   1.0000   1.0000   1.0000   1.0000   1.0000   1.0000
     1.0000   1.0000   1.0000   1.0000   1.0000   1.0000   1.0000   1.0000
     1.0000   1.0000   1.0000   1.0000   1.0000   1.0000   1.0000   1.0000
     1.0000   1.0000   1.0000   1.0000   1.0000   1.0000   1.0000   1.0000
     1.0000   1.0000   1.0000   1.0000   1.0000   1.0000   1.0000   1.0001
     1.0001   1.0002   1.0002   1.0005   1.0013   1.0026   1.0033   1.0044
     1.0065   1.0077   1.0152   1.0175   1.0229   1.0238   1.0284   1.0366
     1.0385   1.0417   1.0458   1.0486   1.0503   1.0539   1.0612   1.0658
     1.0772   1.0811   1.0824   1.0828   1.0496   0.9249   0.8782   0.8182
     0.5792   0.0000   0.0000   0.0000   0.0000   0.0000   0.0000   0.0000
     0.0000   0.0000   0.0000   0.0000   0.0000   0.0000   0.0000   0.0000
     0.0000   0.0000   0.0000   0.0000   0.0000   0.0000   0.0000   0.0000
     0.0000   0.0000   0.0000   0.0000   0.0000   0.0000   0.0000   0.0000
     0.0000   0.0000   0.0000   0.0000   0.0000   0.0000   0.0000   0.0000
     0.0000   0.0000   0.0000   0.0000   0.0000   0.0000   0.0000   0.0000
     0.0000   0.0000   0.0000   0.0000   0.0000   0.0000   0.0000   0.0000
     0.0000   0.0000   0.0000   0.0000   0.0000   0.0000   0.0000   0.0000
     0.0000   0.0000   0.0000   0.0000   0.0000   0.0000   0.0000   0.0000
     0.0000   0.0000   0.0000   0.0000   0.0000   0.0000   0.0000   0.0000
     0.0000   0.0000   0.0000   0.0000   0.0000   0.0000   0.0000   0.0000
     0.0000

          k = 0.0000-0.4095 0.2186 ( 69180 PWs)   bands (ev):

   -75.3749 -75.3162 -74.9467 -74.9367 -74.9319 -74.9313 -74.8977 -74.8951
   -74.8940 -74.8921 -74.8766 -74.8756 -74.8640 -74.8566 -74.8557 -74.8535
   -74.8529 -74.8524 -74.8519 -74.8504 -74.8492 -74.8488 -74.8478 -74.8474
   -74.8471 -74.8466 -74.8427 -74.8423 -74.8400 -74.8392 -74.8379 -41.4417
   -41.4180 -41.3674 -41.3379 -41.1771 -41.1527 -41.0286 -41.0145 -40.9806
   -40.9744 -40.9675 -40.9603 -40.9600 -40.9520 -40.9471 -40.9349 -40.9333
   -40.9321 -40.9318 -40.9308 -40.9299 -40.9293 -40.9271 -40.9266 -40.9259
   -40.9250 -40.9221 -40.9218 -40.9216 -40.9212 -40.9204 -40.9149 -40.9131
   -40.9125 -40.9050 -40.8930 -40.8884 -40.8867 -40.8744 -40.8465 -40.8416
   -40.8403 -40.8391 -40.8369 -40.8304 -40.8245 -40.8101 -40.8090 -40.8050
   -40.8023 -40.7972 -40.7962 -40.7951 -40.7934 -40.7923 -40.7916 -40.7909
   -40.7887 -40.7878 -40.7852 -40.7844 -40.7838 -40.7816 -40.7803 -40.7782
   -40.7776 -40.7757 -40.7736 -40.7733 -40.7731 -40.7722 -40.7717 -40.7702
   -40.7626 -40.7587 -40.7580 -40.7525 -40.7506 -40.7504 -40.7499 -40.7475
   -40.7438 -40.7434 -40.7415 -40.7390 -40.7389 -40.7358 -40.7350 -40.7344
   -40.7328 -40.7289 -40.7280 -40.7236  -4.0909  -4.0588  -3.9132  -3.8847
    -3.3014  -3.2661  -2.9440  -2.8941  -2.8545  -2.7495  -2.7266  -2.7140
    -2.6923  -2.6462  -2.6214  -2.6101  -2.5294  -2.4979  -2.4515  -2.4241
    -2.3950  -2.3687  -2.3449  -2.3275  -2.3104  -2.3007  -2.2842  -2.2565
    -2.2381  -2.2115  -2.1965  -2.1740  -1.1118  -0.9547  -0.9185  -0.8967
    -0.8850  -0.8469  -0.7937  -0.6615  -0.6148  -0.5253  -0.4821  -0.4331
    -0.3934  -0.3360  -0.3067  -0.1290  -0.0211   0.0477   0.0635   0.0656
     0.0836   0.1196   0.1635   0.2378   0.3173   0.3620   0.4227   0.4444
     0.4708   0.4906   0.5917   0.6674   4.6666   4.8759   4.9354   5.0736
     5.1489   5.2418   5.2579   5.2710   5.2752   5.2890   5.3108   5.3145
     5.3247   5.3326   5.3482   5.3523   5.3591   5.3674   5.3940   5.4144
     5.4367   5.4457   5.5613   5.6005   5.6141   5.6432   5.7827   5.8277
     5.8639   5.9308   5.9531   5.9787   6.0091   6.0459   6.2170   6.2378
     6.2490   6.2915   6.3101   6.3492   6.3663   6.3906   6.3964   6.4174
[...]
     atom   72 type  2   force =     0.00497831    0.00285956    0.00010894
     atom   73 type  1   force =    -0.00006353    0.00002079   -0.00000022
     atom   74 type  1   force =    -0.00003684   -0.00011544    0.00044303
     atom   75 type  2   force =     0.00492834   -0.00282676   -0.00001055
     atom   76 type  2   force =    -0.00476891    0.00306505   -0.00000221
     atom   77 type  2   force =    -0.00498584   -0.00303631   -0.00002767
     atom   78 type  2   force =     0.00530620    0.00325820    0.00029170
     atom   79 type  1   force =    -0.00047809    0.00020578   -0.00109047
     atom   80 type  1   force =     0.00097693   -0.00074326   -0.00206120
     atom   81 type  2   force =     0.00516144   -0.00257164    0.00029823
     atom   82 type  2   force =    -0.00514748    0.00318371    0.00022214
     atom   83 type  2   force =    -0.00486197   -0.00302173    0.00005629
     atom   84 type  2   force =     0.00653803    0.00390915    0.00004498
     atom   85 type  1   force =     0.00111124   -0.00064562    0.00204966
     atom   86 type  2   force =     0.00316211   -0.01180368    0.00004747
     atom   87 type  2   force =    -0.00488225    0.00332608    0.00002084
     atom   88 type  2   force =    -0.00488962   -0.00304471   -0.00004392
     atom   89 type  2   force =     0.00653476    0.00384528    0.00002996
     atom   90 type  1   force =     0.00007630   -0.00010682    0.00114522
     atom   91 type  1   force =    -0.00000180   -0.00012225   -0.00050550
     atom   92 type  2   force =     0.00516204   -0.00258374   -0.00031788
     atom   93 type  2   force =    -0.00520907    0.00315243   -0.00027360
     atom   94 type  2   force =    -0.00496718   -0.00303160    0.00008055
     atom   95 type  2   force =     0.00534118    0.00325693   -0.00028625
     atom   96 type  3   force =     0.00000000    0.00000000    0.00000000
     The Hubbard contrib.    to forces
     atom    1 type  1   force =     0.00000000    0.00000000    0.00000000
     atom    2 type  1   force =     0.00000000    0.00000000    0.00000000
     atom    3 type  2   force =     0.00000000    0.00000000    0.00000000
     atom    4 type  2   force =     0.00000000    0.00000000    0.00000000
     atom    5 type  2   force =     0.00000000    0.00000000    0.00000000
     atom    6 type  2   force =     0.00000000    0.00000000    0.00000000
     atom    7 type  1   force =     0.00000000    0.00000000    0.00000000
     atom    8 type  1   force =     0.00000000    0.00000000    0.00000000
     atom    9 type  2   force =     0.00000000    0.00000000    0.00000000
     atom   10 type  2   force =     0.00000000    0.00000000    0.00000000
     atom   11 type  2   force =     0.00000000    0.00000000    0.00000000
     atom   12 type  2   force =     0.00000000    0.00000000    0.00000000
     atom   13 type  1   force =     0.00000000    0.00000000    0.00000000
     atom   14 type  1   force =     0.00000000    0.00000000    0.00000000
     atom   15 type  2   force =     0.00000000    0.00000000    0.00000000
     atom   16 type  2   force =     0.00000000    0.00000000    0.00000000
     atom   17 type  2   force =     0.00000000    0.00000000    0.00000000
     atom   18 type  2   force =     0.00000000    0.00000000    0.00000000
     atom   19 type  1   force =     0.00000000    0.00000000    0.00000000
     atom   20 type  1   force =     0.00000000    0.00000000    0.00000000
     atom   21 type  2   force =     0.00000000    0.00000000    0.00000000
     atom   22 type  2   force =     0.00000000    0.00000000    0.00000000
     atom   23 type  2   force =     0.00000000    0.00000000    0.00000000
     atom   24 type  2   force =     0.00000000    0.00000000    0.00000000
     atom   25 type  1   force =     0.00000000    0.00000000    0.00000000
     atom   26 type  1   force =     0.00000000    0.00000000    0.00000000
     atom   27 type  2   force =     0.00000000    0.00000000    0.00000000
     atom   28 type  2   force =     0.00000000    0.00000000    0.00000000
     atom   29 type  2   force =     0.00000000    0.00000000    0.00000000
     atom   30 type  2   force =     0.00000000    0.00000000    0.00000000
     atom   31 type  1   force =     0.00000000    0.00000000    0.00000000
     atom   32 type  1   force =     0.00000000    0.00000000    0.00000000
     atom   33 type  2   force =     0.00000000    0.00000000    0.00000000
     atom   34 type  2   force =     0.00000000    0.00000000    0.00000000
     atom   35 type  2   force =     0.00000000    0.00000000    0.00000000
     atom   36 type  2   force =     0.00000000    0.00000000    0.00000000
     atom   37 type  1   force =     0.00000000    0.00000000    0.00000000
     atom   38 type  1   force =     0.00000000    0.00000000    0.00000000
     atom   39 type  2   force =     0.00000000    0.00000000    0.00000000
     atom   40 type  2   force =     0.00000000    0.00000000    0.00000000
     atom   41 type  2   force =     0.00000000    0.00000000    0.00000000
     atom   42 type  2   force =     0.00000000    0.00000000    0.00000000
     atom   43 type  1   force =     0.00000000    0.00000000    0.00000000
     atom   44 type  1   force =     0.00000000    0.00000000    0.00000000
     atom   45 type  2   force =     0.00000000    0.00000000    0.00000000
     atom   46 type  2   force =     0.00000000    0.00000000    0.00000000
     atom   47 type  2   force =     0.00000000    0.00000000    0.00000000
     atom   48 type  2   force =     0.00000000    0.00000000    0.00000000
     atom   49 type  1   force =     0.00000000    0.00000000    0.00000000
     atom   50 type  1   force =     0.00000000    0.00000000    0.00000000
     atom   51 type  2   force =     0.00000000    0.00000000    0.00000000
     atom   52 type  2   force =     0.00000000    0.00000000    0.00000000
     atom   53 type  2   force =     0.00000000    0.00000000    0.00000000
     atom   54 type  2   force =     0.00000000    0.00000000    0.00000000
     atom   55 type  1   force =     0.00000000    0.00000000    0.00000000
     atom   56 type  1   force =     0.00000000    0.00000000    0.00000000
     atom   57 type  2   force =     0.00000000    0.00000000    0.00000000
     atom   58 type  2   force =     0.00000000    0.00000000    0.00000000
     atom   59 type  2   force =     0.00000000    0.00000000    0.00000000
     atom   60 type  2   force =     0.00000000    0.00000000    0.00000000
     atom   61 type  1   force =     0.00000000    0.00000000    0.00000000
     atom   62 type  1   force =     0.00000000    0.00000000    0.00000000
     atom   63 type  2   force =     0.00000000    0.00000000    0.00000000
     atom   64 type  2   force =     0.00000000    0.00000000    0.00000000
     atom   65 type  2   force =     0.00000000    0.00000000    0.00000000
     atom   66 type  2   force =     0.00000000    0.00000000    0.00000000
     atom   67 type  1   force =     0.00000000    0.00000000    0.00000000
     atom   68 type  1   force =     0.00000000    0.00000000    0.00000000
     atom   69 type  2   force =     0.00000000    0.00000000    0.00000000
     atom   70 type  2   force =     0.00000000    0.00000000    0.00000000
     atom   71 type  2   force =     0.00000000    0.00000000    0.00000000
     atom   72 type  2   force =     0.00000000    0.00000000    0.00000000
     atom   73 type  1   force =     0.00000000    0.00000000    0.00000000
     atom   74 type  1   force =     0.00000000    0.00000000    0.00000000
     atom   75 type  2   force =     0.00000000    0.00000000    0.00000000
     atom   76 type  2   force =     0.00000000    0.00000000    0.00000000
     atom   77 type  2   force =     0.00000000    0.00000000    0.00000000
     atom   78 type  2   force =     0.00000000    0.00000000    0.00000000
     atom   79 type  1   force =     0.00000000    0.00000000    0.00000000
     atom   80 type  1   force =     0.00000000    0.00000000    0.00000000
     atom   81 type  2   force =     0.00000000    0.00000000    0.00000000
     atom   82 type  2   force =     0.00000000    0.00000000    0.00000000
     atom   83 type  2   force =     0.00000000    0.00000000    0.00000000
     atom   84 type  2   force =     0.00000000    0.00000000    0.00000000
     atom   85 type  1   force =     0.00000000    0.00000000    0.00000000
     atom   86 type  2   force =     0.00000000    0.00000000    0.00000000
     atom   87 type  2   force =     0.00000000    0.00000000    0.00000000
     atom   88 type  2   force =     0.00000000    0.00000000    0.00000000
     atom   89 type  2   force =     0.00000000    0.00000000    0.00000000
     atom   90 type  1   force =     0.00000000    0.00000000    0.00000000
     atom   91 type  1   force =     0.00000000    0.00000000    0.00000000
     atom   92 type  2   force =     0.00000000    0.00000000    0.00000000
     atom   93 type  2   force =     0.00000000    0.00000000    0.00000000
     atom   94 type  2   force =     0.00000000    0.00000000    0.00000000
     atom   95 type  2   force =     0.00000000    0.00000000    0.00000000
     atom   96 type  3   force =     0.00000000    0.00000000    0.00000000
     The SCF correction term to forces
     atom    1 type  1   force =    -0.00001177   -0.00003808   -0.00006265
     atom    2 type  1   force =    -0.00003380   -0.00001197   -0.00015740
     atom    3 type  2   force =    -0.00000898   -0.00000381   -0.00002496
     atom    4 type  2   force =    -0.00000484   -0.00000875   -0.00003533
     atom    5 type  2   force =    -0.00002037    0.00001110   -0.00006390
     atom    6 type  2   force =    -0.00000839   -0.00001537   -0.00005837
     atom    7 type  1   force =    -0.00001326   -0.00003829   -0.00015133
     atom    8 type  1   force =     0.00008158   -0.00001258   -0.00000423
     atom    9 type  2   force =    -0.00000571   -0.00000729   -0.00005597
     atom   10 type  2   force =    -0.00000277   -0.00001570   -0.00002991
     atom   11 type  2   force =     0.00002392    0.00001019   -0.00002221
     atom   12 type  2   force =     0.00000519   -0.00000292   -0.00000934
     atom   13 type  1   force =    -0.00001385   -0.00003560    0.00005630
     atom   14 type  1   force =     0.00009795    0.00001595    0.00011235
     atom   15 type  2   force =     0.00001429   -0.00000423    0.00002238
     atom   16 type  2   force =     0.00003864    0.00002391    0.00003205
     atom   17 type  2   force =     0.00003863    0.00002007    0.00006310
     atom   18 type  2   force =     0.00000955   -0.00000131    0.00004467
     atom   19 type  1   force =    -0.00001185   -0.00003652    0.00015573
     atom   20 type  1   force =    -0.00001376    0.00001645    0.00005223
     atom   21 type  2   force =    -0.00000319   -0.00000096    0.00005867
     atom   22 type  2   force =     0.00001376    0.00001706    0.00003288
     atom   23 type  2   force =    -0.00000637    0.00001663    0.00002124
     atom   24 type  2   force =    -0.00000612   -0.00001212    0.00002275
     atom   25 type  1   force =    -0.00001237    0.00003459   -0.00007819
     atom   26 type  1   force =    -0.00002858    0.00001873   -0.00015277
     atom   27 type  2   force =    -0.00001302    0.00000507   -0.00002868
     atom   28 type  2   force =     0.00000015   -0.00000426   -0.00002910
     atom   29 type  2   force =    -0.00000667   -0.00000773   -0.00005658
     atom   30 type  2   force =    -0.00003203    0.00002519   -0.00006911
     atom   31 type  1   force =    -0.00000015    0.00002762   -0.00020329
     atom   32 type  1   force =     0.00003020   -0.00002907   -0.00005332
     atom   33 type  2   force =     0.00000029    0.00001570   -0.00005252
     atom   34 type  2   force =    -0.00000749   -0.00000470   -0.00004080
     atom   35 type  2   force =     0.00000435   -0.00001270   -0.00002721
     atom   36 type  2   force =     0.00001224    0.00002581    0.00002393
     atom   37 type  1   force =    -0.00000722    0.00003187    0.00008160
     atom   38 type  1   force =     0.00006150   -0.00007561    0.00016387
     atom   39 type  2   force =     0.00002845    0.00001505    0.00002773
     atom   40 type  2   force =     0.00001157   -0.00003417    0.00002842
     atom   41 type  2   force =     0.00000651   -0.00001475    0.00005944
     atom   42 type  2   force =     0.00003812    0.00001162    0.00003619
     atom   43 type  1   force =    -0.00000727    0.00002928    0.00020266
     atom   44 type  1   force =    -0.00000434   -0.00001799    0.00004555
     atom   45 type  2   force =     0.00000880    0.00000487    0.00005302
     atom   46 type  2   force =    -0.00000073   -0.00002259    0.00004132
     atom   47 type  2   force =    -0.00000400   -0.00001071    0.00002469
     atom   48 type  2   force =    -0.00000869    0.00001294    0.00000162
     atom   49 type  1   force =     0.00000967   -0.00003386   -0.00006661
     atom   50 type  1   force =     0.00003167   -0.00001546   -0.00015451
     atom   51 type  2   force =     0.00000631   -0.00000625   -0.00002859
     atom   52 type  2   force =     0.00000637    0.00000550   -0.00002834
     atom   53 type  2   force =     0.00003692   -0.00000144   -0.00006848
     atom   54 type  2   force =     0.00000229   -0.00001554   -0.00005726
     atom   55 type  1   force =     0.00000787   -0.00002781   -0.00012166
     atom   56 type  1   force =    -0.00007266    0.00002271   -0.00001310
     atom   57 type  2   force =     0.00000920   -0.00000460   -0.00003763
     atom   58 type  2   force =    -0.00000460   -0.00000424   -0.00005468
     atom   59 type  2   force =    -0.00001361   -0.00000509    0.00003463
     atom   60 type  2   force =    -0.00000983   -0.00000911   -0.00002512
     atom   61 type  1   force =     0.00002022    0.00001589    0.00006396
     atom   62 type  1   force =    -0.00009434    0.00006592    0.00012283
     atom   63 type  2   force =    -0.00001219    0.00002762    0.00002616
     atom   64 type  2   force =    -0.00004028   -0.00000411    0.00002684
     atom   65 type  2   force =    -0.00003723    0.00000964    0.00002628
     atom   66 type  2   force =    -0.00001257   -0.00000734    0.00005695
     atom   67 type  1   force =     0.00000769   -0.00002972    0.00012497
     atom   68 type  1   force =     0.00000850    0.00001955    0.00004929
     atom   69 type  2   force =     0.00000332    0.00001232    0.00003953
     atom   70 type  2   force =    -0.00001273    0.00000645    0.00005604
     atom   71 type  2   force =     0.00001382    0.00001127    0.00000160
     atom   72 type  2   force =    -0.00000041   -0.00001296    0.00002509
     atom   73 type  1   force =     0.00001274    0.00003756   -0.00013555
     atom   74 type  1   force =     0.00003576    0.00001008   -0.00016865
     atom   75 type  2   force =     0.00001386    0.00001993   -0.00003652
     atom   76 type  2   force =     0.00000039   -0.00000762   -0.00002593
     atom   77 type  2   force =     0.00001356   -0.00000936   -0.00005941
     atom   78 type  2   force =     0.00001418    0.00001326   -0.00006538
     atom   79 type  1   force =     0.00001608    0.00003197   -0.00003439
     atom   80 type  1   force =    -0.00005873    0.00001810    0.00000922
     atom   81 type  2   force =     0.00000926    0.00002330   -0.00003428
     atom   82 type  2   force =     0.00000192   -0.00000116   -0.00005899
     atom   83 type  2   force =     0.00000227   -0.00001432   -0.00001002
     atom   84 type  2   force =    -0.00003343    0.00000933   -0.00001725
     atom   85 type  1   force =    -0.00008453   -0.00001705    0.00009599
     atom   86 type  2   force =    -0.00000638   -0.00002925    0.00003670
     atom   87 type  2   force =    -0.00002128   -0.00000796    0.00002487
     atom   88 type  2   force =    -0.00000071   -0.00001924    0.00004557
     atom   89 type  2   force =    -0.00004771    0.00000473    0.00005979
     atom   90 type  1   force =     0.00001380    0.00003737    0.00004520
     atom   91 type  1   force =     0.00001186   -0.00001913    0.00005974
     atom   92 type  2   force =    -0.00000509   -0.00000850    0.00003508
     atom   93 type  2   force =    -0.00000341   -0.00000946    0.00006016
     atom   94 type  2   force =     0.00001165   -0.00001367    0.00002362
     atom   95 type  2   force =    -0.00000000    0.00000928    0.00002156
     atom   96 type  3   force =     0.00000782    0.00000372    0.00000874

     Total force =     0.015643     Total SCF correction =     0.000782

     Writing all to output data dir /tmp/neb_canonical_marc_96at_qe_VFe/image_03/tmp/image_03.save/ :
     XML data file, charge density, pseudopotentials, collected wavefunctions
 
     init_run     :      7.96s CPU     12.72s WALL (       1 calls)
     electrons    :    337.89s CPU    441.34s WALL (       1 calls)
     forces       :      3.91s CPU      4.84s WALL (       1 calls)

     Called by init_run:
     wfcinit      :      5.63s CPU      8.57s WALL (       1 calls)
     wfcinit:atom :      0.15s CPU      0.16s WALL (      16 calls)
     wfcinit:wfcr :      4.55s CPU      4.77s WALL (      16 calls)
     potinit      :      0.10s CPU      0.15s WALL (       1 calls)
     hinit0       :      1.97s CPU      1.92s WALL (       1 calls)

     Called by electrons:
     c_bands      :    290.20s CPU    364.52s WALL (      20 calls)
     sum_band     :     42.73s CPU     67.89s WALL (      20 calls)
     v_of_rho     :      0.87s CPU      0.62s WALL (      21 calls)
     v_h          :      0.35s CPU      0.17s WALL (      21 calls)
     v_xc         :      0.53s CPU      0.47s WALL (      22 calls)
     mix_rho      :      3.32s CPU      7.46s WALL (      20 calls)

     Called by c_bands:
     init_us_2    :      3.62s CPU      3.85s WALL (     672 calls)
     cegterg      :    253.47s CPU    253.85s WALL (     320 calls)

     Called by sum_band:
     sum_band:wei :      0.29s CPU      0.30s WALL (      20 calls)
     sum_band:loo :     42.09s CPU     67.15s WALL (      20 calls)
     sum_band:buf :     15.23s CPU     40.26s WALL (     320 calls)
     sum_band:ini :      1.79s CPU      1.84s WALL (     320 calls)

     Called by *egterg:
     cdiaghg      :     31.58s CPU     31.94s WALL (    1490 calls)
                                       31.92s GPU  (    1490 calls)
     cegterg:over :     33.90s CPU     33.92s WALL (    1170 calls)
     cegterg:upda :     12.74s CPU     12.76s WALL (    1170 calls)
     cegterg:last :     16.43s CPU     16.44s WALL (     632 calls)
     h_psi        :    142.15s CPU    142.47s WALL (    1506 calls)
     g_psi        :      0.42s CPU      0.42s WALL (    1170 calls)

     Called by h_psi:
     h_psi:calbec :      0.11s CPU      0.18s WALL (    1506 calls)
     vloc_psi     :    113.19s CPU    113.27s WALL (    1506 calls)
                                      113.26s GPU  (    1506 calls)
     add_vuspsi   :     27.96s CPU     28.07s WALL (    1506 calls)

     General routines
     calbec       :      0.11s CPU      0.18s WALL (    1570 calls)
     fft          :      0.01s CPU      0.04s WALL (     414 calls)
                                        0.04s GPU  (     414 calls)
     ffts         :      0.01s CPU      0.05s WALL (     553 calls)
                                        0.05s GPU  (     553 calls)
     fftw         :      0.83s CPU    101.24s WALL (   63148 calls)
                                      100.59s GPU  (   63148 calls)
     davcio       :      1.47s CPU    106.30s WALL (    1382 calls)
 
     Parallel routines
 
     PWSCF        :   5m51.10s CPU   7m50.37s WALL

 
   This run was terminated on:  14:47:42  29May2026            

=------------------------------------------------------------------------------=
   JOB DONE.
=------------------------------------------------------------------------------=
