
     Program PWSCF v.7.5 starts on 29May2026 at 15:25:11 

     This program is part of the open-source Quantum ESPRESSO suite
     for quantum simulation of materials; please cite
         "P. Giannozzi et al., J. Phys.:Condens. Matter 21 395502 (2009);
         "P. Giannozzi et al., J. Phys.:Condens. Matter 29 465901 (2017);
         "P. Giannozzi et al., J. Chem. Phys. 152 154105 (2020);
          URL http://www.quantum-espresso.org", 
     in publications or presentations arising from this work. More details at
     http://www.quantum-espresso.org/quote

     Parallel version (MPI & OpenMP), running on       8 processor cores
     Number of MPI processes:                 1
     Threads/MPI process:                     8

     MPI processes distributed on     1 nodes
     251790 MiB available memory on the printing compute node when the environment starts
 
     Reading input from espresso.pwi
Warning: card &CELL ignored
Warning: card &FCP ignored
Warning: card &RISM ignored

     Current dimensions of program PWSCF are:
     Max number of different atomic species (ntypx) = 10
     Max number of k-points (npk) =  40000
     Max angular momentum in pseudopotentials (lmaxx) =  4
 
     Subspace diagonalization in iterative solution of the eigenvalue problem:
     a serial algorithm will be used

 
     G-vector sticks info
     --------------------
     sticks:   dense  smooth     PW     G-vecs:    dense   smooth      PW
     Sum        6591    6591   1755               553421   553421   76211
 
     Using Slab Decomposition
 


     bravais-lattice index     =            0
     lattice parameter (alat)  =      16.7921  a.u.
     unit-cell volume          =    8814.7061 (a.u.)^3
     number of atoms/cell      =           96
     number of atomic types    =            3
     number of electrons       =       881.00
     number of Kohn-Sham states=          529
     kinetic-energy cutoff     =      60.0000  Ry
     charge density cutoff     =     240.0000  Ry
     scf convergence threshold =      1.0E-07
     mixing beta               =       0.2000
     number of iterations used =           12  local-TF  mixing
     Exchange-correlation= PBE
                           (   1   4   3   4   0   0   0)

     GPU acceleration is ACTIVE.  1 visible GPUs per MPI rank


     GPU used by master process:

        Device Number: 0
        Device name: NVIDIA A100-SXM4-40GB
        Compute capability : 80
        Ratio of single to double precision performance  : 2
        Memory Clock Rate (KHz): 1215000
        Memory Bus Width (bits): 5120
        Peak Memory Bandwidth (GB/s): ******

     celldm(1)=  16.792106  celldm(2)=   0.000000  celldm(3)=   0.000000
     celldm(4)=   0.000000  celldm(5)=   0.000000  celldm(6)=   0.000000

     crystal axes: (cart. coord. in units of alat)
               a(1) = (   1.000000   0.000000   0.000000 )  
               a(2) = (   0.000000   1.221022   0.000000 )  
               a(3) = (   0.000000   0.000000   1.524646 )  

     reciprocal axes: (cart. coord. in units 2 pi/alat)
               b(1) = (  1.000000  0.000000  0.000000 )  
               b(2) = (  0.000000  0.818986  0.000000 )  
               b(3) = (  0.000000  0.000000  0.655890 )  


     PseudoPot. # 1 for Fe read from file:
     /opt/pp/oncv_pbe/Fe.upf
     MD5 check sum: a5f07f5dca5be6cacb81ceb54992e4ae
     Pseudo is Norm-conserving + core correction, Zval = 16.0
     Generated using ONCVPSP code by D. R. Hamann
     Using radial grid of 1426 points,  6 beta functions with: 
                l(1) =   0
                l(2) =   0
                l(3) =   1
                l(4) =   1
                l(5) =   2
                l(6) =   2

     PseudoPot. # 2 for S  read from file:
     /opt/pp/oncv_pbe/S.upf
     MD5 check sum: 6027e7704d67ae28863b2247926ce6f3
     Pseudo is Norm-conserving + core correction, Zval =  6.0
     Generated using ONCVPSP code by D. R. Hamann
     Using radial grid of 1146 points,  6 beta functions with: 
                l(1) =   0
                l(2) =   0
                l(3) =   1
                l(4) =   1
                l(5) =   2
                l(6) =   2

     PseudoPot. # 3 for H  read from file:
     /opt/pp/oncv_pbe/H.upf
     MD5 check sum: e96aa7e3e4a958db16958554ea960e2a
     Pseudo is Norm-conserving, Zval =  1.0
     Generated using ONCVPSP code by D. R. Hamann
     Using radial grid of 1166 points,  3 beta functions with: 
                l(1) =   0
                l(2) =   0
                l(3) =   1

     atomic species   valence    mass     pseudopotential
     Fe               16.00    55.84500     Fe( 1.00)
     S                 6.00    32.06000     S ( 1.00)
     H                 1.00     1.00800     H ( 1.00)

     Starting magnetic structure 
     atomic species   magnetization
     Fe              0.065
     S               0.000
     H               0.000

     No symmetry found


                                    s                        frac. trans.

      isym =  1     identity                                     

 cryst.   s( 1) = (     1          0          0      )
                  (     0          1          0      )
                  (     0          0          1      )

 cart.    s( 1) = (  1.0000000  0.0000000  0.0000000 )
                  (  0.0000000  1.0000000  0.0000000 )
                  (  0.0000000  0.0000000  1.0000000 )


   Cartesian axes

     site n.     atom                  positions (alat units)
         1        Fe     tau(   1) = (   0.0006723   0.0000693   0.0004812  )
         2        Fe     tau(   2) = (   0.2512162   0.3049474   0.1911142  )
         3        S      tau(   3) = (   0.1050766   0.2287828   0.0002104  )
         4        S      tau(   4) = (   0.3968612   0.3815947   0.0002607  )
         5        S      tau(   5) = (   0.1471546   0.5332702   0.1908592  )
         6        S      tau(   6) = (   0.3546059   0.0761750   0.1910808  )
         7        Fe     tau(   7) = (   0.0008190  -0.0011036   0.3815903  )
         8        Fe     tau(   8) = (   0.2497781   0.3033738   0.5713050  )
         9        S      tau(   9) = (   0.1037329   0.2270255   0.3801696  )
        10        S      tau(  10) = (   0.3985143   0.3797009   0.3816321  )
        11        S      tau(  11) = (   0.1418306   0.5310059   0.5705757  )
        12        S      tau(  12) = (   0.3544441   0.0748653   0.5718978  )
        13        Fe     tau(  13) = (   0.0008671  -0.0006814   0.7628765  )
        14        Fe     tau(  14) = (   0.2505015   0.3044077   0.9540346  )
        15        S      tau(  15) = (   0.1035734   0.2279795   0.7630902  )
        16        S      tau(  16) = (   0.3938550   0.3746818   0.7633774  )
        17        S      tau(  17) = (   0.1472579   0.5362497   0.9552143  )
        18        S      tau(  18) = (   0.3541485   0.0761727   0.9538692  )
        19        Fe     tau(  19) = (   0.0006113   0.0005238   1.1442253  )
        20        Fe     tau(  20) = (   0.2512444   0.3057669   1.3340259  )
        21        S      tau(  21) = (   0.1037857   0.2284808   1.1447837  )
        22        S      tau(  22) = (   0.3977336   0.3813273   1.1426561  )
        23        S      tau(  23) = (   0.1473009   0.5338261   1.3344128  )
        24        S      tau(  24) = (   0.3546198   0.0770234   1.3347207  )
        25        Fe     tau(  25) = (   0.0007658   0.6105607   0.0004428  )
        26        Fe     tau(  26) = (   0.2506809   0.9156270   0.1913763  )
        27        S      tau(  27) = (   0.1045279   0.8393184   0.0007892  )
        28        S      tau(  28) = (   0.3966271   0.9925640   0.0008987  )
        29        S      tau(  29) = (   0.1467142   1.1441405   0.1907419  )
        30        S      tau(  30) = (   0.3544693   0.6868885   0.1910650  )
        31        Fe     tau(  31) = (   0.0007323   0.6098271   0.3799493  )
        32        Fe     tau(  32) = (   0.2509413   0.9139212   0.5733509  )
        33        S      tau(  33) = (   0.1034731   0.8388371   0.3811706  )
        34        S      tau(  34) = (   0.3965710   0.9918491   0.3816594  )
        35        S      tau(  35) = (   0.1468767   1.1431098   0.5725000  )
        36        S      tau(  36) = (   0.3468147   0.6851862   0.5612844  )
        37        Fe     tau(  37) = (   0.0003825   0.6097533   0.7629135  )
        38        Fe     tau(  38) = (   0.2486139   0.9164844   0.9564319  )
        39        S      tau(  39) = (   0.1032842   0.8391862   0.7639690  )
        40        S      tau(  40) = (   0.4003329   0.9910495   0.7649483  )
        41        S      tau(  41) = (   0.1465052   1.1449923   0.9538154  )
        42        S      tau(  42) = (   0.3456667   0.6896589   0.9602011  )
        43        Fe     tau(  43) = (   0.0003883   0.6110586   1.1464720  )
        44        Fe     tau(  44) = (   0.2506620   0.9162735   1.3350589  )
        45        S      tau(  45) = (   0.1021732   0.8408488   1.1459828  )
        46        S      tau(  46) = (   0.3959663   0.9934316   1.1449852  )
        47        S      tau(  47) = (   0.1466913   1.1449812   1.3350989  )
        48        S      tau(  48) = (   0.3543020   0.6876821   1.3349239  )
        49        Fe     tau(  49) = (   0.5006424   0.0000818   0.0005415  )
        50        Fe     tau(  50) = (   0.7507673   0.3048857   0.1905378  )
        51        S      tau(  51) = (   0.6045581   0.2286831   0.0002306  )
        52        S      tau(  52) = (   0.8968070   0.3818104   0.0002914  )
        53        S      tau(  53) = (   0.6473494   0.5334818   0.1903471  )
        54        S      tau(  54) = (   0.8545793   0.0760659   0.1907123  )
        55        Fe     tau(  55) = (   0.5006095  -0.0006074   0.3815917  )
        56        Fe     tau(  56) = (   0.7527425   0.3044245   0.5703198  )
        57        S      tau(  57) = (   0.6053129   0.2278050   0.3810381  )
        58        S      tau(  58) = (   0.8978994   0.3799131   0.3796768  )
        59        S      tau(  59) = (   0.6548243   0.5323493   0.5667890  )
        60        S      tau(  60) = (   0.8546731   0.0757516   0.5722350  )
        61        Fe     tau(  61) = (   0.5005841   0.0007878   0.7630260  )
        62        Fe     tau(  62) = (   0.7521526   0.3058171   0.9548024  )
        63        S      tau(  63) = (   0.6023471   0.2306964   0.7623421  )
        64        S      tau(  64) = (   0.8975989   0.3808986   0.7625961  )
        65        S      tau(  65) = (   0.6556568   0.5322339   0.9605557  )
        66        S      tau(  66) = (   0.8545400   0.0764912   0.9534131  )
        67        Fe     tau(  67) = (   0.5005595   0.0006088   1.1443310  )
        68        Fe     tau(  68) = (   0.7505811   0.3055376   1.3342644  )
        69        S      tau(  69) = (   0.6048430   0.2287726   1.1442910  )
        70        S      tau(  70) = (   0.8987892   0.3812658   1.1455019  )
        71        S      tau(  71) = (   0.6470144   0.5341268   1.3347503  )
        72        S      tau(  72) = (   0.8545135   0.0768213   1.3349980  )
        73        Fe     tau(  73) = (   0.5008393   0.6106163   0.0000251  )
        74        Fe     tau(  74) = (   0.7503668   0.9155786   0.1916603  )
        75        S      tau(  75) = (   0.6044688   0.8397260   0.0005915  )
        76        S      tau(  76) = (   0.8962792   0.9925221   0.0005948  )
        77        S      tau(  77) = (   0.6467338   1.1442904   0.1910765  )
        78        S      tau(  78) = (   0.8542900   0.6874381   0.1910311  )
        79        Fe     tau(  79) = (   0.5018970   0.6094972   0.3833438  )
        80        Fe     tau(  80) = (   0.7497077   0.9164921   0.5721124  )
        81        S      tau(  81) = (   0.6041698   0.8394360   0.3820399  )
        82        S      tau(  82) = (   0.8968837   0.9925825   0.3817992  )
        83        S      tau(  83) = (   0.6468580   1.1451088   0.5721002  )
        84        S      tau(  84) = (   0.8518238   0.6842740   0.5714152  )
        85        Fe     tau(  85) = (   0.7499747   0.9172155   0.9541143  )
        86        S      tau(  86) = (   0.6046471   0.8454019   0.7642854  )
        87        S      tau(  87) = (   0.8966578   0.9919522   0.7628691  )
        88        S      tau(  88) = (   0.6470013   1.1459783   0.9539430  )
        89        S      tau(  89) = (   0.8529271   0.6853283   0.9549479  )
        90        Fe     tau(  90) = (   0.5008395   0.6108988   1.1383822  )
        91        Fe     tau(  91) = (   0.7498771   0.9161457   1.3343858  )
        92        S      tau(  92) = (   0.6032479   0.8408336   1.1429804  )
        93        S      tau(  93) = (   0.8972527   0.9935015   1.1449434  )
        94        S      tau(  94) = (   0.6466086   1.1448927   1.3347099  )
        95        S      tau(  95) = (   0.8538139   0.6880620   1.3345919  )
        96        H      tau(  96) = (   0.3974493   0.6086706   0.6906270  )

   Crystallographic axes

     site n.     atom                  positions (cryst. coord.)
         1        Fe     tau(   1) = (  0.0006723  0.0000568  0.0003156  )
         2        Fe     tau(   2) = (  0.2512162  0.2497477  0.1253499  )
         3        S      tau(   3) = (  0.1050766  0.1873700  0.0001380  )
         4        S      tau(   4) = (  0.3968612  0.3125207  0.0001710  )
         5        S      tau(   5) = (  0.1471546  0.4367409  0.1251826  )
         6        S      tau(   6) = (  0.3546059  0.0623863  0.1253280  )
         7        Fe     tau(   7) = (  0.0008190 -0.0009038  0.2502814  )
         8        Fe     tau(   8) = (  0.2497781  0.2484589  0.3747134  )
         9        S      tau(   9) = (  0.1037329  0.1859307  0.2493495  )
        10        S      tau(  10) = (  0.3985143  0.3109698  0.2503087  )
        11        S      tau(  11) = (  0.1418306  0.4348865  0.3742350  )
        12        S      tau(  12) = (  0.3544441  0.0613136  0.3751021  )
        13        Fe     tau(  13) = (  0.0008671 -0.0005581  0.5003632  )
        14        Fe     tau(  14) = (  0.2505015  0.2493057  0.6257419  )
        15        S      tau(  15) = (  0.1035734  0.1867121  0.5005034  )
        16        S      tau(  16) = (  0.3938550  0.3068592  0.5006918  )
        17        S      tau(  17) = (  0.1472579  0.4391811  0.6265157  )
        18        S      tau(  18) = (  0.3541485  0.0623844  0.6256334  )
        19        Fe     tau(  19) = (  0.0006113  0.0004290  0.7504861  )
        20        Fe     tau(  20) = (  0.2512444  0.2504188  0.8749745  )
        21        S      tau(  21) = (  0.1037857  0.1871226  0.7508523  )
        22        S      tau(  22) = (  0.3977336  0.3123017  0.7494569  )
        23        S      tau(  23) = (  0.1473009  0.4371962  0.8752282  )
        24        S      tau(  24) = (  0.3546198  0.0630811  0.8754302  )
        25        Fe     tau(  25) = (  0.0007658  0.5000407  0.0002904  )
        26        Fe     tau(  26) = (  0.2506809  0.7498859  0.1255219  )
        27        S      tau(  27) = (  0.1045279  0.6873902  0.0005176  )
        28        S      tau(  28) = (  0.3966271  0.8128962  0.0005894  )
        29        S      tau(  29) = (  0.1467142  0.9370353  0.1251057  )
        30        S      tau(  30) = (  0.3544693  0.5625522  0.1253177  )
        31        Fe     tau(  31) = (  0.0007323  0.4994399  0.2492050  )
        32        Fe     tau(  32) = (  0.2509413  0.7484888  0.3760552  )
        33        S      tau(  33) = (  0.1034731  0.6869960  0.2500061  )
        34        S      tau(  34) = (  0.3965710  0.8123107  0.2503266  )
        35        S      tau(  35) = (  0.1468767  0.9361911  0.3754971  )
        36        S      tau(  36) = (  0.3468147  0.5611580  0.3681409  )
        37        Fe     tau(  37) = (  0.0003825  0.4993795  0.5003874  )
        38        Fe     tau(  38) = (  0.2486139  0.7505881  0.6273143  )
        39        S      tau(  39) = (  0.1032842  0.6872819  0.5010798  )
        40        S      tau(  40) = (  0.4003329  0.8116558  0.5017221  )
        41        S      tau(  41) = (  0.1465052  0.9377329  0.6255981  )
        42        S      tau(  42) = (  0.3456667  0.5648211  0.6297864  )
        43        Fe     tau(  43) = (  0.0003883  0.5004485  0.7519597  )
        44        Fe     tau(  44) = (  0.2506620  0.7504154  0.8756520  )
        45        S      tau(  45) = (  0.1021732  0.6886436  0.7516389  )
        46        S      tau(  46) = (  0.3959663  0.8136068  0.7509845  )
        47        S      tau(  47) = (  0.1466913  0.9377238  0.8756782  )
        48        S      tau(  48) = (  0.3543020  0.5632021  0.8755635  )
        49        Fe     tau(  49) = (  0.5006424  0.0000670  0.0003552  )
        50        Fe     tau(  50) = (  0.7507673  0.2496972  0.1249719  )
        51        S      tau(  51) = (  0.6045581  0.1872883  0.0001513  )
        52        S      tau(  52) = (  0.8968070  0.3126974  0.0001911  )
        53        S      tau(  53) = (  0.6473494  0.4369142  0.1248468  )
        54        S      tau(  54) = (  0.8545793  0.0622969  0.1250863  )
        55        Fe     tau(  55) = (  0.5006095 -0.0004974  0.2502822  )
        56        Fe     tau(  56) = (  0.7527425  0.2493195  0.3740671  )
        57        S      tau(  57) = (  0.6053129  0.1865691  0.2499192  )
        58        S      tau(  58) = (  0.8978994  0.3111436  0.2490263  )
        59        S      tau(  59) = (  0.6548243  0.4359867  0.3717513  )
        60        S      tau(  60) = (  0.8546731  0.0620395  0.3753233  )
        61        Fe     tau(  61) = (  0.5005841  0.0006452  0.5004612  )
        62        Fe     tau(  62) = (  0.7521526  0.2504600  0.6262455  )
        63        S      tau(  63) = (  0.6023471  0.1889372  0.5000127  )
        64        S      tau(  64) = (  0.8975989  0.3119507  0.5001793  )
        65        S      tau(  65) = (  0.6556568  0.4358922  0.6300191  )
        66        S      tau(  66) = (  0.8545400  0.0626452  0.6253343  )
        67        Fe     tau(  67) = (  0.5005595  0.0004986  0.7505554  )
        68        Fe     tau(  68) = (  0.7505811  0.2502311  0.8751309  )
        69        S      tau(  69) = (  0.6048430  0.1873616  0.7505292  )
        70        S      tau(  70) = (  0.8987892  0.3122514  0.7513234  )
        71        S      tau(  71) = (  0.6470144  0.4374425  0.8754496  )
        72        S      tau(  72) = (  0.8545135  0.0629156  0.8756121  )
        73        Fe     tau(  73) = (  0.5008393  0.5000863  0.0000164  )
        74        Fe     tau(  74) = (  0.7503668  0.7498462  0.1257081  )
        75        S      tau(  75) = (  0.6044688  0.6877240  0.0003880  )
        76        S      tau(  76) = (  0.8962792  0.8128619  0.0003901  )
        77        S      tau(  77) = (  0.6467338  0.9371581  0.1253252  )
        78        S      tau(  78) = (  0.8542900  0.5630023  0.1252954  )
        79        Fe     tau(  79) = (  0.5018970  0.4991698  0.2514314  )
        80        Fe     tau(  80) = (  0.7497077  0.7505944  0.3752429  )
        81        S      tau(  81) = (  0.6041698  0.6874865  0.2505762  )
        82        S      tau(  82) = (  0.8968837  0.8129113  0.2504183  )
        83        S      tau(  83) = (  0.6468580  0.9378283  0.3752349  )
        84        S      tau(  84) = (  0.8518238  0.5604109  0.3747856  )
        85        Fe     tau(  85) = (  0.7499747  0.7511868  0.6257942  )
        86        S      tau(  86) = (  0.6046471  0.6923725  0.5012873  )
        87        S      tau(  87) = (  0.8966578  0.8123951  0.5003583  )
        88        S      tau(  88) = (  0.6470013  0.9385404  0.6256818  )
        89        S      tau(  89) = (  0.8529271  0.5612744  0.6263410  )
        90        Fe     tau(  90) = (  0.5008395  0.5003176  0.7466537  )
        91        Fe     tau(  91) = (  0.7498771  0.7503107  0.8752105  )
        92        S      tau(  92) = (  0.6032479  0.6886311  0.7496696  )
        93        S      tau(  93) = (  0.8972527  0.8136640  0.7509571  )
        94        S      tau(  94) = (  0.6466086  0.9376513  0.8754231  )
        95        S      tau(  95) = (  0.8538139  0.5635133  0.8753457  )
        96        H      tau(  96) = (  0.3974493  0.4984928  0.4529754  )

     number of k points=     8  Marzari-Vanderbilt smearing, width (Ry)=  0.0150
                       cart. coord. in units 2pi/alat
        k(    1) = (   0.0000000   0.0000000   0.0000000), wk =   0.0833333
        k(    2) = (   0.0000000   0.0000000   0.2186301), wk =   0.1666667
        k(    3) = (   0.0000000  -0.4094931   0.0000000), wk =   0.0833333
        k(    4) = (   0.0000000  -0.4094931   0.2186301), wk =   0.1666667
        k(    5) = (  -0.5000000   0.0000000   0.0000000), wk =   0.0833333
        k(    6) = (  -0.5000000   0.0000000   0.2186301), wk =   0.1666667
        k(    7) = (  -0.5000000  -0.4094931   0.0000000), wk =   0.0833333
        k(    8) = (  -0.5000000  -0.4094931   0.2186301), wk =   0.1666667

                       cryst. coord.
        k(    1) = (   0.0000000   0.0000000   0.0000000), wk =   0.0833333
        k(    2) = (   0.0000000   0.0000000   0.3333333), wk =   0.1666667
        k(    3) = (   0.0000000  -0.5000000   0.0000000), wk =   0.0833333
        k(    4) = (   0.0000000  -0.5000000   0.3333333), wk =   0.1666667
        k(    5) = (  -0.5000000   0.0000000   0.0000000), wk =   0.0833333
        k(    6) = (  -0.5000000   0.0000000   0.3333333), wk =   0.1666667
        k(    7) = (  -0.5000000  -0.5000000   0.0000000), wk =   0.0833333
        k(    8) = (  -0.5000000  -0.5000000   0.3333333), wk =   0.1666667

     Dense  grid:   553421 G-vectors     FFT dimensions: (  90, 108, 128)

     Dynamical RAM for                 wfc:     558.42 MB

     Dynamical RAM for     wfc (w. buffer):     558.42 MB

     Dynamical RAM for           str. fact:      25.33 MB

     Dynamical RAM for           local pot:       0.00 MB

     Dynamical RAM for          nlocal pot:    1810.39 MB

     Dynamical RAM for                qrad:       3.73 MB

     Dynamical RAM for          rho,v,vnew:     107.62 MB

     Dynamical RAM for               rhoin:      35.87 MB

     Dynamical RAM for           G-vectors:      35.89 MB

     Dynamical RAM for          h,s,v(r/c):      51.24 MB

     Dynamical RAM for          <psi|beta>:      13.84 MB

     Dynamical RAM for                 psi:    1116.84 MB

     Dynamical RAM for                hpsi:    1116.84 MB

     Dynamical RAM for      wfcinit/wfcrot:    1123.25 MB

     Estimated static dynamical RAM per process >       2.61 GB

     Estimated max dynamical RAM per process >       4.85 GB
     Generating pointlists ...
     new r_m :   0.1016 (alat units)  1.7053 (a.u.) for type    1
     new r_m :   0.0654 (alat units)  1.0985 (a.u.) for type    2
     new r_m :   0.0654 (alat units)  1.0985 (a.u.) for type    3

     Initial potential from superposition of free atoms

     starting charge     880.9860, renormalised to     881.0000
     Starting wfcs are  567 randomized atomic wfcs

     total cpu time spent up to now is       13.5 secs

     per-process dynamical memory:  1150.2 Mb

     Self-consistent Calculation
[tb_dev] Currently allocated     3.10E+01 Mbytes, locked:    0 /   3
[tb_pin] Currently allocated     0.00E+00 Mbytes, locked:    0 /   0

     iteration #  1     ecut=    60.00 Ry     beta= 0.20
     Davidson diagonalization with overlap

---- Real-time Memory Report at c_bands before calling an iterative solver
          3224 MiB given to the printing process from OS
          1157 MiB allocation reported by mallinfo(arena+hblkhd)
        253568 MiB available memory on the node where the printing process lives
     GPU memory used/free/total (MiB): 5716 / 34725 / 40442
------------------
     ethr =  1.00E-02,  avg # of iterations =  2.0

     total cpu time spent up to now is       37.5 secs

     total energy              =   -9183.19645525 Ry
     estimated scf accuracy    <      16.59281391 Ry

     total magnetization       =     1.48 Bohr mag/cell
     absolute magnetization    =    13.12 Bohr mag/cell
[tb_dev] Currently allocated     0.00E+00 Mbytes, locked:    0 /   0
[tb_pin] Currently allocated     0.00E+00 Mbytes, locked:    0 /   0

     iteration #  2     ecut=    60.00 Ry     beta= 0.20
     Davidson diagonalization with overlap

---- Real-time Memory Report at c_bands before calling an iterative solver
          3259 MiB given to the printing process from OS
          1157 MiB allocation reported by mallinfo(arena+hblkhd)
        253480 MiB available memory on the node where the printing process lives
     GPU memory used/free/total (MiB): 8500 / 31941 / 40442
------------------
     ethr =  1.88E-03,  avg # of iterations =  2.0

     total cpu time spent up to now is       59.1 secs

     total energy              =   -9183.33828460 Ry
     estimated scf accuracy    <       5.85191201 Ry

     total magnetization       =     1.15 Bohr mag/cell
     absolute magnetization    =    12.40 Bohr mag/cell
[tb_dev] Currently allocated     0.00E+00 Mbytes, locked:    0 /   0
[tb_pin] Currently allocated     0.00E+00 Mbytes, locked:    0 /   0

     iteration #  3     ecut=    60.00 Ry     beta= 0.20
     Davidson diagonalization with overlap

---- Real-time Memory Report at c_bands before calling an iterative solver
          3311 MiB given to the printing process from OS
          1225 MiB allocation reported by mallinfo(arena+hblkhd)
        252984 MiB available memory on the node where the printing process lives
     GPU memory used/free/total (MiB): 8506 / 31935 / 40442
------------------
     ethr =  6.64E-04,  avg # of iterations =  2.0

     total cpu time spent up to now is       80.7 secs

     total energy              =   -9183.35026067 Ry
     estimated scf accuracy    <       1.62295566 Ry

     total magnetization       =     1.20 Bohr mag/cell
     absolute magnetization    =    10.19 Bohr mag/cell
[tb_dev] Currently allocated     0.00E+00 Mbytes, locked:    0 /   0
[tb_pin] Currently allocated     0.00E+00 Mbytes, locked:    0 /   0

     iteration #  4     ecut=    60.00 Ry     beta= 0.20
     Davidson diagonalization with overlap

---- Real-time Memory Report at c_bands before calling an iterative solver
          3346 MiB given to the printing process from OS
          1225 MiB allocation reported by mallinfo(arena+hblkhd)
        248362 MiB available memory on the node where the printing process lives
     GPU memory used/free/total (MiB): 8506 / 31935 / 40442
------------------
     ethr =  1.84E-04,  avg # of iterations =  4.4
     Minimization algorithm failed to find Fermi energy: reverting to bisection
     Possible cause: smearing is larger than the electronic band-gap.

     total cpu time spent up to now is      103.5 secs

     total energy              =   -9183.48498544 Ry
     estimated scf accuracy    <       0.17989867 Ry

     total magnetization       =     1.63 Bohr mag/cell
     absolute magnetization    =     6.02 Bohr mag/cell
[tb_dev] Currently allocated     0.00E+00 Mbytes, locked:    0 /   0
[tb_pin] Currently allocated     0.00E+00 Mbytes, locked:    0 /   0

     iteration #  5     ecut=    60.00 Ry     beta= 0.20
     Davidson diagonalization with overlap

---- Real-time Memory Report at c_bands before calling an iterative solver
          3381 MiB given to the printing process from OS
          1244 MiB allocation reported by mallinfo(arena+hblkhd)
        248272 MiB available memory on the node where the printing process lives
     GPU memory used/free/total (MiB): 8506 / 31935 / 40442
------------------
     ethr =  2.04E-05,  avg # of iterations =  8.4
     Minimization algorithm failed to find Fermi energy: reverting to bisection
     Possible cause: smearing is larger than the electronic band-gap.

     total cpu time spent up to now is      132.5 secs

     total energy              =   -9183.51102981 Ry
     estimated scf accuracy    <       0.05674819 Ry

     total magnetization       =     1.41 Bohr mag/cell
     absolute magnetization    =     4.66 Bohr mag/cell
[tb_dev] Currently allocated     0.00E+00 Mbytes, locked:    0 /   0
[tb_pin] Currently allocated     0.00E+00 Mbytes, locked:    0 /   0

     iteration #  6     ecut=    60.00 Ry     beta= 0.20
     Davidson diagonalization with overlap

---- Real-time Memory Report at c_bands before calling an iterative solver
          3425 MiB given to the printing process from OS
          1244 MiB allocation reported by mallinfo(arena+hblkhd)
        248206 MiB available memory on the node where the printing process lives
     GPU memory used/free/total (MiB): 8506 / 31935 / 40442
------------------
     ethr =  6.44E-06,  avg # of iterations =  3.4

     total cpu time spent up to now is      155.0 secs

     total energy              =   -9183.51687782 Ry
     estimated scf accuracy    <       0.02269634 Ry

     total magnetization       =     1.29 Bohr mag/cell
     absolute magnetization    =     3.81 Bohr mag/cell
[tb_dev] Currently allocated     0.00E+00 Mbytes, locked:    0 /   0
[tb_pin] Currently allocated     0.00E+00 Mbytes, locked:    0 /   0

     iteration #  7     ecut=    60.00 Ry     beta= 0.20
     Davidson diagonalization with overlap

---- Real-time Memory Report at c_bands before calling an iterative solver
          3459 MiB given to the printing process from OS
          1244 MiB allocation reported by mallinfo(arena+hblkhd)
        248153 MiB available memory on the node where the printing process lives
     GPU memory used/free/total (MiB): 8506 / 31935 / 40442
------------------
     ethr =  2.58E-06,  avg # of iterations =  2.1

     total cpu time spent up to now is      175.8 secs

     total energy              =   -9183.51785932 Ry
     estimated scf accuracy    <       0.00853130 Ry

     total magnetization       =     1.19 Bohr mag/cell
     absolute magnetization    =     3.06 Bohr mag/cell
[tb_dev] Currently allocated     0.00E+00 Mbytes, locked:    0 /   0
[tb_pin] Currently allocated     0.00E+00 Mbytes, locked:    0 /   0

     iteration #  8     ecut=    60.00 Ry     beta= 0.20
     Davidson diagonalization with overlap

---- Real-time Memory Report at c_bands before calling an iterative solver
          3493 MiB given to the printing process from OS
          1244 MiB allocation reported by mallinfo(arena+hblkhd)
        248090 MiB available memory on the node where the printing process lives
     GPU memory used/free/total (MiB): 8506 / 31935 / 40442
------------------
     ethr =  9.68E-07,  avg # of iterations =  2.9

     total cpu time spent up to now is      199.0 secs

     total energy              =   -9183.51950098 Ry
     estimated scf accuracy    <       0.00084832 Ry

     total magnetization       =     1.14 Bohr mag/cell
     absolute magnetization    =     2.16 Bohr mag/cell
[tb_dev] Currently allocated     0.00E+00 Mbytes, locked:    0 /   0
[tb_pin] Currently allocated     0.00E+00 Mbytes, locked:    0 /   0

     iteration #  9     ecut=    60.00 Ry     beta= 0.20
     Davidson diagonalization with overlap

---- Real-time Memory Report at c_bands before calling an iterative solver
          3527 MiB given to the printing process from OS
          1244 MiB allocation reported by mallinfo(arena+hblkhd)
        247979 MiB available memory on the node where the printing process lives
     GPU memory used/free/total (MiB): 8522 / 31919 / 40442
------------------
     ethr =  9.63E-08,  avg # of iterations =  5.0
     Minimization algorithm failed to find Fermi energy: reverting to bisection
     Possible cause: smearing is larger than the electronic band-gap.

     total cpu time spent up to now is      224.4 secs

     total energy              =   -9183.51978170 Ry
     estimated scf accuracy    <       0.00071637 Ry

     total magnetization       =     1.09 Bohr mag/cell
     absolute magnetization    =     1.86 Bohr mag/cell
[tb_dev] Currently allocated     0.00E+00 Mbytes, locked:    0 /   0
[tb_pin] Currently allocated     0.00E+00 Mbytes, locked:    0 /   0

     iteration # 10     ecut=    60.00 Ry     beta= 0.20
     Davidson diagonalization with overlap

---- Real-time Memory Report at c_bands before calling an iterative solver
          3561 MiB given to the printing process from OS
          1244 MiB allocation reported by mallinfo(arena+hblkhd)
        248152 MiB available memory on the node where the printing process lives
     GPU memory used/free/total (MiB): 8540 / 31901 / 40442
------------------
     ethr =  8.13E-08,  avg # of iterations =  1.8

     total cpu time spent up to now is      245.6 secs

     total energy              =   -9183.51990459 Ry
     estimated scf accuracy    <       0.00032422 Ry

     total magnetization       =     1.02 Bohr mag/cell
     absolute magnetization    =     1.71 Bohr mag/cell
[tb_dev] Currently allocated     0.00E+00 Mbytes, locked:    0 /   0
[tb_pin] Currently allocated     0.00E+00 Mbytes, locked:    0 /   0

     iteration # 11     ecut=    60.00 Ry     beta= 0.20
     Davidson diagonalization with overlap

---- Real-time Memory Report at c_bands before calling an iterative solver
          3594 MiB given to the printing process from OS
          1244 MiB allocation reported by mallinfo(arena+hblkhd)
        248116 MiB available memory on the node where the printing process lives
     GPU memory used/free/total (MiB): 8540 / 31901 / 40442
------------------
     ethr =  3.68E-08,  avg # of iterations =  3.8

     total cpu time spent up to now is      269.3 secs

     total energy              =   -9183.52005273 Ry
     estimated scf accuracy    <       0.00010812 Ry

     total magnetization       =     0.89 Bohr mag/cell
     absolute magnetization    =     1.39 Bohr mag/cell
[tb_dev] Currently allocated     0.00E+00 Mbytes, locked:    0 /   0
[tb_pin] Currently allocated     0.00E+00 Mbytes, locked:    0 /   0

     iteration # 12     ecut=    60.00 Ry     beta= 0.20
     Davidson diagonalization with overlap

---- Real-time Memory Report at c_bands before calling an iterative solver
          3628 MiB given to the printing process from OS
          1244 MiB allocation reported by mallinfo(arena+hblkhd)
        247993 MiB available memory on the node where the printing process lives
     GPU memory used/free/total (MiB): 8540 / 31901 / 40442
------------------
     ethr =  1.23E-08,  avg # of iterations =  2.4

     total cpu time spent up to now is      291.4 secs

     total energy              =   -9183.52008909 Ry
     estimated scf accuracy    <       0.00006480 Ry

     total magnetization       =     0.84 Bohr mag/cell
     absolute magnetization    =     1.30 Bohr mag/cell
[tb_dev] Currently allocated     0.00E+00 Mbytes, locked:    0 /   0
[tb_pin] Currently allocated     0.00E+00 Mbytes, locked:    0 /   0

     iteration # 13     ecut=    60.00 Ry     beta= 0.20
     Davidson diagonalization with overlap

---- Real-time Memory Report at c_bands before calling an iterative solver
          3662 MiB given to the printing process from OS
          1244 MiB allocation reported by mallinfo(arena+hblkhd)
        248003 MiB available memory on the node where the printing process lives
     GPU memory used/free/total (MiB): 8540 / 31901 / 40442
------------------
     ethr =  7.36E-09,  avg # of iterations =  4.1

     total cpu time spent up to now is      314.7 secs

     total energy              =   -9183.52012399 Ry
     estimated scf accuracy    <       0.00002662 Ry

     total magnetization       =     0.77 Bohr mag/cell
     absolute magnetization    =     1.20 Bohr mag/cell
[tb_dev] Currently allocated     0.00E+00 Mbytes, locked:    0 /   0
[tb_pin] Currently allocated     0.00E+00 Mbytes, locked:    0 /   0

     iteration # 14     ecut=    60.00 Ry     beta= 0.20
     Davidson diagonalization with overlap

---- Real-time Memory Report at c_bands before calling an iterative solver
          3696 MiB given to the printing process from OS
          1244 MiB allocation reported by mallinfo(arena+hblkhd)
        247542 MiB available memory on the node where the printing process lives
     GPU memory used/free/total (MiB): 8540 / 31901 / 40442
------------------
     ethr =  3.02E-09,  avg # of iterations =  4.7

     total cpu time spent up to now is      339.9 secs

     total energy              =   -9183.52015544 Ry
     estimated scf accuracy    <       0.00001634 Ry

     total magnetization       =     0.70 Bohr mag/cell
     absolute magnetization    =     1.11 Bohr mag/cell
[tb_dev] Currently allocated     0.00E+00 Mbytes, locked:    0 /   0
[tb_pin] Currently allocated     0.00E+00 Mbytes, locked:    0 /   0

     iteration # 15     ecut=    60.00 Ry     beta= 0.20
     Davidson diagonalization with overlap

---- Real-time Memory Report at c_bands before calling an iterative solver
          3696 MiB given to the printing process from OS
          1244 MiB allocation reported by mallinfo(arena+hblkhd)
        249922 MiB available memory on the node where the printing process lives
     GPU memory used/free/total (MiB): 8540 / 31901 / 40442
------------------
     ethr =  1.85E-09,  avg # of iterations =  2.1

     total cpu time spent up to now is      362.8 secs

     total energy              =   -9183.52015818 Ry
     estimated scf accuracy    <       0.00001064 Ry

     total magnetization       =     0.67 Bohr mag/cell
     absolute magnetization    =     1.07 Bohr mag/cell
[tb_dev] Currently allocated     0.00E+00 Mbytes, locked:    0 /   0
[tb_pin] Currently allocated     0.00E+00 Mbytes, locked:    0 /   0

     iteration # 16     ecut=    60.00 Ry     beta= 0.20
     Davidson diagonalization with overlap

---- Real-time Memory Report at c_bands before calling an iterative solver
          3696 MiB given to the printing process from OS
          1244 MiB allocation reported by mallinfo(arena+hblkhd)
        248179 MiB available memory on the node where the printing process lives
     GPU memory used/free/total (MiB): 8540 / 31901 / 40442
------------------
     ethr =  1.21E-09,  avg # of iterations =  5.0

     total cpu time spent up to now is      389.6 secs

     total energy              =   -9183.52018069 Ry
     estimated scf accuracy    <       0.00000408 Ry

     total magnetization       =     0.60 Bohr mag/cell
     absolute magnetization    =     1.00 Bohr mag/cell
[tb_dev] Currently allocated     0.00E+00 Mbytes, locked:    0 /   0
[tb_pin] Currently allocated     0.00E+00 Mbytes, locked:    0 /   0

     iteration # 17     ecut=    60.00 Ry     beta= 0.20
     Davidson diagonalization with overlap

---- Real-time Memory Report at c_bands before calling an iterative solver
          3696 MiB given to the printing process from OS
          1244 MiB allocation reported by mallinfo(arena+hblkhd)
        248144 MiB available memory on the node where the printing process lives
     GPU memory used/free/total (MiB): 8540 / 31901 / 40442
------------------
     ethr =  4.63E-10,  avg # of iterations =  2.7

     total cpu time spent up to now is      412.6 secs

     total energy              =   -9183.52018388 Ry
     estimated scf accuracy    <       0.00000269 Ry

     total magnetization       =     0.58 Bohr mag/cell
     absolute magnetization    =     0.98 Bohr mag/cell
[tb_dev] Currently allocated     0.00E+00 Mbytes, locked:    0 /   0
[tb_pin] Currently allocated     0.00E+00 Mbytes, locked:    0 /   0

     iteration # 18     ecut=    60.00 Ry     beta= 0.20
     Davidson diagonalization with overlap

---- Real-time Memory Report at c_bands before calling an iterative solver
          3696 MiB given to the printing process from OS
          1244 MiB allocation reported by mallinfo(arena+hblkhd)
        248110 MiB available memory on the node where the printing process lives
     GPU memory used/free/total (MiB): 8540 / 31901 / 40442
------------------
     ethr =  3.05E-10,  avg # of iterations =  4.9

     total cpu time spent up to now is      436.9 secs

     total energy              =   -9183.52018403 Ry
     estimated scf accuracy    <       0.00000162 Ry

     total magnetization       =     0.56 Bohr mag/cell
     absolute magnetization    =     0.96 Bohr mag/cell
[tb_dev] Currently allocated     0.00E+00 Mbytes, locked:    0 /   0
[tb_pin] Currently allocated     0.00E+00 Mbytes, locked:    0 /   0

     iteration # 19     ecut=    60.00 Ry     beta= 0.20
     Davidson diagonalization with overlap

---- Real-time Memory Report at c_bands before calling an iterative solver
          3696 MiB given to the printing process from OS
          1244 MiB allocation reported by mallinfo(arena+hblkhd)
        248085 MiB available memory on the node where the printing process lives
     GPU memory used/free/total (MiB): 8540 / 31901 / 40442
------------------
     ethr =  1.84E-10,  avg # of iterations =  5.2

     total cpu time spent up to now is      464.6 secs

     total energy              =   -9183.52018974 Ry
     estimated scf accuracy    <       0.00000068 Ry

     total magnetization       =     0.53 Bohr mag/cell
     absolute magnetization    =     0.92 Bohr mag/cell
[tb_dev] Currently allocated     0.00E+00 Mbytes, locked:    0 /   0
[tb_pin] Currently allocated     0.00E+00 Mbytes, locked:    0 /   0

     iteration # 20     ecut=    60.00 Ry     beta= 0.20
     Davidson diagonalization with overlap

---- Real-time Memory Report at c_bands before calling an iterative solver
          3696 MiB given to the printing process from OS
          1244 MiB allocation reported by mallinfo(arena+hblkhd)
        252587 MiB available memory on the node where the printing process lives
     GPU memory used/free/total (MiB): 8540 / 31901 / 40442
------------------
     ethr =  7.66E-11,  avg # of iterations =  3.2

     total cpu time spent up to now is      486.9 secs

     total energy              =   -9183.52018986 Ry
     estimated scf accuracy    <       0.00000052 Ry

     total magnetization       =     0.52 Bohr mag/cell
     absolute magnetization    =     0.92 Bohr mag/cell
[tb_dev] Currently allocated     0.00E+00 Mbytes, locked:    0 /   0
[tb_pin] Currently allocated     0.00E+00 Mbytes, locked:    0 /   0

     iteration # 21     ecut=    60.00 Ry     beta= 0.20
     Davidson diagonalization with overlap

---- Real-time Memory Report at c_bands before calling an iterative solver
          3696 MiB given to the printing process from OS
          1244 MiB allocation reported by mallinfo(arena+hblkhd)
        248223 MiB available memory on the node where the printing process lives
     GPU memory used/free/total (MiB): 8540 / 31901 / 40442
------------------
     ethr =  5.88E-11,  avg # of iterations =  5.3

     total cpu time spent up to now is      513.5 secs

     total energy              =   -9183.52019092 Ry
     estimated scf accuracy    <       0.00000025 Ry

     total magnetization       =     0.51 Bohr mag/cell
     absolute magnetization    =     0.90 Bohr mag/cell
[tb_dev] Currently allocated     0.00E+00 Mbytes, locked:    0 /   0
[tb_pin] Currently allocated     0.00E+00 Mbytes, locked:    0 /   0

     iteration # 22     ecut=    60.00 Ry     beta= 0.20
     Davidson diagonalization with overlap

---- Real-time Memory Report at c_bands before calling an iterative solver
          3696 MiB given to the printing process from OS
          1244 MiB allocation reported by mallinfo(arena+hblkhd)
        246297 MiB available memory on the node where the printing process lives
     GPU memory used/free/total (MiB): 8540 / 31901 / 40442
------------------
     ethr =  2.89E-11,  avg # of iterations =  5.0

     total cpu time spent up to now is      539.2 secs

     total energy              =   -9183.52019149 Ry
     estimated scf accuracy    <       0.00000017 Ry

     total magnetization       =     0.51 Bohr mag/cell
     absolute magnetization    =     0.89 Bohr mag/cell
[tb_dev] Currently allocated     0.00E+00 Mbytes, locked:    0 /   0
[tb_pin] Currently allocated     0.00E+00 Mbytes, locked:    0 /   0

     iteration # 23     ecut=    60.00 Ry     beta= 0.20
     Davidson diagonalization with overlap

---- Real-time Memory Report at c_bands before calling an iterative solver
          3697 MiB given to the printing process from OS
          1244 MiB allocation reported by mallinfo(arena+hblkhd)
        246428 MiB available memory on the node where the printing process lives
     GPU memory used/free/total (MiB): 8540 / 31901 / 40442
------------------
     ethr =  1.94E-11,  avg # of iterations =  2.9

     total cpu time spent up to now is      561.7 secs

     total energy              =   -9183.52019154 Ry
     estimated scf accuracy    <       0.00000010 Ry

     total magnetization       =     0.51 Bohr mag/cell
     absolute magnetization    =     0.89 Bohr mag/cell
[tb_dev] Currently allocated     0.00E+00 Mbytes, locked:    0 /   0
[tb_pin] Currently allocated     0.00E+00 Mbytes, locked:    0 /   0

     iteration # 24     ecut=    60.00 Ry     beta= 0.20
     Davidson diagonalization with overlap

---- Real-time Memory Report at c_bands before calling an iterative solver
          3697 MiB given to the printing process from OS
          1244 MiB allocation reported by mallinfo(arena+hblkhd)
        246413 MiB available memory on the node where the printing process lives
     GPU memory used/free/total (MiB): 8540 / 31901 / 40442
------------------
     ethr =  1.16E-11,  avg # of iterations =  5.1
 
     Magnetic moment per site  (integrated on atomic sphere of radius R)
     atom   1 (R=0.102)  charge= 13.8681  magn= -0.0013
     atom   2 (R=0.102)  charge= 13.8668  magn= -0.0034
     atom   3 (R=0.065)  charge=  1.0441  magn= -0.0000
     atom   4 (R=0.065)  charge=  1.0448  magn=  0.0001
     atom   5 (R=0.065)  charge=  1.0441  magn=  0.0002
     atom   6 (R=0.065)  charge=  1.0446  magn= -0.0000
     atom   7 (R=0.102)  charge= 13.8692  magn=  0.0009
     atom   8 (R=0.102)  charge= 13.8621  magn=  0.0046
     atom   9 (R=0.065)  charge=  1.0443  magn= -0.0001
     atom  10 (R=0.065)  charge=  1.0443  magn= -0.0003
     atom  11 (R=0.065)  charge=  1.0451  magn= -0.0002
     atom  12 (R=0.065)  charge=  1.0444  magn= -0.0000
     atom  13 (R=0.102)  charge= 13.8701  magn=  0.0042
     atom  14 (R=0.102)  charge= 13.8653  magn= -0.0052
     atom  15 (R=0.065)  charge=  1.0441  magn= -0.0002
     atom  16 (R=0.065)  charge=  1.0474  magn=  0.0014
     atom  17 (R=0.065)  charge=  1.0439  magn= -0.0005
     atom  18 (R=0.065)  charge=  1.0449  magn= -0.0001
     atom  19 (R=0.102)  charge= 13.8706  magn=  0.0044
     atom  20 (R=0.102)  charge= 13.8670  magn= -0.0037
     atom  21 (R=0.065)  charge=  1.0454  magn= -0.0002
     atom  22 (R=0.065)  charge=  1.0449  magn= -0.0011
     atom  23 (R=0.065)  charge=  1.0446  magn= -0.0000
     atom  24 (R=0.065)  charge=  1.0445  magn= -0.0000
     atom  25 (R=0.102)  charge= 13.8645  magn=  0.0054
     atom  26 (R=0.102)  charge= 13.8679  magn=  0.0030
     atom  27 (R=0.065)  charge=  1.0446  magn= -0.0000
     atom  28 (R=0.065)  charge=  1.0445  magn=  0.0001
     atom  29 (R=0.065)  charge=  1.0445  magn=  0.0001
     atom  30 (R=0.065)  charge=  1.0441  magn= -0.0001
     atom  31 (R=0.102)  charge= 13.8724  magn=  0.0049
     atom  32 (R=0.102)  charge= 13.8642  magn= -0.0017
     atom  33 (R=0.065)  charge=  1.0446  magn=  0.0000
     atom  34 (R=0.065)  charge=  1.0449  magn= -0.0000
     atom  35 (R=0.065)  charge=  1.0438  magn=  0.0002
     atom  36 (R=0.065)  charge=  1.0512  magn= -0.0001
     atom  37 (R=0.102)  charge= 13.8638  magn=  0.0013
     atom  38 (R=0.102)  charge= 13.8696  magn=  0.0205
     atom  39 (R=0.065)  charge=  1.0444  magn=  0.0000
     atom  40 (R=0.065)  charge=  1.0415  magn=  0.0001
     atom  41 (R=0.065)  charge=  1.0454  magn=  0.0001
     atom  42 (R=0.065)  charge=  1.0470  magn=  0.0059
     atom  43 (R=0.102)  charge= 13.8718  magn=  0.0244
     atom  44 (R=0.102)  charge= 13.8694  magn= -0.0054
     atom  45 (R=0.065)  charge=  1.0449  magn=  0.0001
     atom  46 (R=0.065)  charge=  1.0439  magn= -0.0006
     atom  47 (R=0.065)  charge=  1.0448  magn=  0.0001
     atom  48 (R=0.065)  charge=  1.0437  magn= -0.0006
     atom  49 (R=0.102)  charge= 13.8678  magn=  0.0030
     atom  50 (R=0.102)  charge= 13.8703  magn=  0.0026
     atom  51 (R=0.065)  charge=  1.0447  magn=  0.0001
     atom  52 (R=0.065)  charge=  1.0447  magn=  0.0000
     atom  53 (R=0.065)  charge=  1.0438  magn= -0.0000
     atom  54 (R=0.065)  charge=  1.0445  magn=  0.0000
     atom  55 (R=0.102)  charge= 13.8689  magn= -0.0019
     atom  56 (R=0.102)  charge= 13.8673  magn=  0.0232
     atom  57 (R=0.065)  charge=  1.0444  magn= -0.0001
     atom  58 (R=0.065)  charge=  1.0449  magn=  0.0000
     atom  59 (R=0.065)  charge=  1.0463  magn=  0.0037
     atom  60 (R=0.065)  charge=  1.0449  magn=  0.0001
     atom  61 (R=0.102)  charge= 13.8660  magn=  0.0045
     atom  62 (R=0.102)  charge= 13.8664  magn=  0.0514
     atom  63 (R=0.065)  charge=  1.0426  magn=  0.0001
     atom  64 (R=0.065)  charge=  1.0450  magn= -0.0001
     atom  65 (R=0.065)  charge=  1.0463  magn=  0.0104
     atom  66 (R=0.065)  charge=  1.0448  magn=  0.0001
     atom  67 (R=0.102)  charge= 13.8695  magn= -0.0052
     atom  68 (R=0.102)  charge= 13.8690  magn= -0.0052
     atom  69 (R=0.065)  charge=  1.0447  magn= -0.0007
     atom  70 (R=0.065)  charge=  1.0443  magn=  0.0001
     atom  71 (R=0.065)  charge=  1.0442  magn= -0.0006
     atom  72 (R=0.065)  charge=  1.0444  magn=  0.0001
     atom  73 (R=0.102)  charge= 13.8649  magn= -0.0222
     atom  74 (R=0.102)  charge= 13.8672  magn= -0.0062
     atom  75 (R=0.065)  charge=  1.0446  magn=  0.0000
     atom  76 (R=0.065)  charge=  1.0442  magn= -0.0001
     atom  77 (R=0.065)  charge=  1.0447  magn= -0.0000
     atom  78 (R=0.065)  charge=  1.0445  magn= -0.0000
     atom  79 (R=0.102)  charge= 13.8612  magn=  0.0445
     atom  80 (R=0.102)  charge= 13.8620  magn= -0.0014
     atom  81 (R=0.065)  charge=  1.0449  magn= -0.0002
     atom  82 (R=0.065)  charge=  1.0451  magn= -0.0001
     atom  83 (R=0.065)  charge=  1.0453  magn= -0.0000
     atom  84 (R=0.065)  charge=  1.0430  magn=  0.0001
     atom  85 (R=0.102)  charge= 13.8635  magn= -0.0165
     atom  86 (R=0.065)  charge=  1.0469  magn=  0.0010
     atom  87 (R=0.065)  charge=  1.0446  magn= -0.0000
     atom  88 (R=0.065)  charge=  1.0452  magn= -0.0001
     atom  89 (R=0.065)  charge=  1.0437  magn= -0.0003
     atom  90 (R=0.102)  charge= 13.8422  magn=  0.2894
     atom  91 (R=0.102)  charge= 13.8667  magn= -0.0053
     atom  92 (R=0.065)  charge=  1.0451  magn= -0.0010
     atom  93 (R=0.065)  charge=  1.0448  magn= -0.0002
     atom  94 (R=0.065)  charge=  1.0450  magn= -0.0000
     atom  95 (R=0.065)  charge=  1.0445  magn= -0.0002
     atom  96 (R=0.065)  charge=  0.6585  magn=  0.0002

     total cpu time spent up to now is      587.6 secs

     End of self-consistent calculation

 ------ SPIN UP ------------


          k = 0.0000 0.0000 0.0000 ( 69157 PWs)   bands (ev):

   -75.3004 -75.0454 -74.9276 -74.9111 -74.9104 -74.8941 -74.8851 -74.8808
   -74.8762 -74.8748 -74.8682 -74.8624 -74.8617 -74.8606 -74.8598 -74.8592
   -74.8590 -74.8585 -74.8544 -74.8537 -74.8532 -74.8528 -74.8523 -74.8498
   -74.8491 -74.8485 -74.8479 -74.8454 -74.8449 -74.8402 -74.8367 -41.3595
   -41.3130 -41.1321 -41.0627 -41.0209 -41.0208 -41.0149 -40.9694 -40.9686
   -40.9512 -40.9444 -40.9417 -40.9401 -40.9381 -40.9332 -40.9326 -40.9319
   -40.9308 -40.9302 -40.9293 -40.9289 -40.9284 -40.9281 -40.9270 -40.9269
   -40.9264 -40.9261 -40.9247 -40.9245 -40.9233 -40.9212 -40.9152 -40.9143
   -40.9118 -40.8997 -40.8502 -40.8461 -40.8340 -40.8306 -40.8164 -40.8154
   -40.8136 -40.8111 -40.8096 -40.8053 -40.8023 -40.8021 -40.7984 -40.7965
   -40.7951 -40.7948 -40.7941 -40.7936 -40.7922 -40.7906 -40.7898 -40.7895
   -40.7882 -40.7877 -40.7876 -40.7873 -40.7872 -40.7864 -40.7830 -40.7828
   -40.7818 -40.7799 -40.7779 -40.7770 -40.7758 -40.7738 -40.7689 -40.7661
   -40.7626 -40.7599 -40.7571 -40.7557 -40.7546 -40.7535 -40.7517 -40.7511
   -40.7480 -40.7464 -40.7455 -40.7439 -40.7430 -40.7425 -40.7424 -40.7382
   -40.7364 -40.7354 -40.7310 -40.7239  -4.3772  -3.8932  -3.8138  -3.5030
    -3.4556  -3.1759  -3.0583  -3.0311  -3.0112  -2.9847  -2.9101  -2.7527
    -2.6572  -2.6416  -2.6339  -2.6136  -2.5600  -2.5446  -2.5340  -2.4790
    -2.4763  -2.3738  -2.3514  -2.3258  -2.2960  -2.2401  -2.2164  -2.0912
    -2.0843  -2.0076  -1.9822  -1.9377  -1.3707  -1.3399  -0.9864  -0.9454
    -0.8961  -0.8477  -0.6591  -0.6234  -0.5143  -0.4578  -0.4413  -0.4293
    -0.3521  -0.3423  -0.2755  -0.2197  -0.1451  -0.0268   0.0824   0.0848
     0.0910   0.2686   0.2977   0.3044   0.3365   0.3936   0.4268   0.4446
     0.4835   0.5079   0.5631   0.6572   4.5451   4.7063   4.7238   4.8280
     5.1236   5.1584   5.1608   5.1701   5.2058   5.2428   5.2489   5.2700
     5.2757   5.2887   5.2991   5.3209   5.4099   5.4740   5.5515   5.6496
     5.6794   5.6981   5.7443   5.7636   5.8508   5.8918   5.8965   5.9165
     5.9238   5.9443   5.9508   5.9653   5.9794   6.0087   6.0247   6.0641
     6.0995   6.1961   6.2379   6.2911   6.5122   6.5666   6.5986   6.6124
     6.7130   6.7225   6.7820   6.8127   6.8234   6.8326   6.8391   6.8748
     6.9540   6.9803   7.0096   7.0591   7.1497   7.1528   7.1574   7.1885
     7.2063   7.2137   7.2352   7.2530   7.2869   7.3361   7.3751   7.4351
     7.6473   7.7810   7.7950   7.8116   7.8320   7.8338   7.8398   7.8567
     7.8582   7.8702   7.8727   7.8780   7.8855   7.8899   7.9000   7.9042
     7.9184   7.9579   7.9970   8.0650   8.1488   8.1958   8.2129   8.2321
     8.2894   8.3018   8.3037   8.3526   8.3661   8.3900   8.4454   8.4689
     8.4882   8.4998   8.5155   8.5339   8.5387   8.5477   8.5874   8.6124
     8.6294   8.6383   8.6657   8.6805   8.6983   8.7045   8.7379   8.7512
     8.7661   8.8020   8.8094   8.8231   8.8351   8.8862   8.9150   8.9367
     8.9494   8.9919   9.0272   9.1311   9.2221   9.3322   9.3753   9.3858
     9.4214   9.4559   9.4772   9.4954   9.4991   9.5440   9.5782   9.5872
     9.5945   9.6097   9.6171   9.6201   9.6508   9.7181   9.7639   9.8550
     9.9650   9.9758  10.1465  10.1911  10.2141  10.2338  10.3538  10.3769
    10.4076  10.4333  10.4553  10.6332  10.6690  10.7005  10.7033  10.7354
    10.7571  10.7750  10.8227  10.8320  10.8523  10.8618  10.8673  10.8800
    10.8809  10.8872  10.8952  10.9117  10.9484  10.9612  10.9715  11.0087
    11.0208  11.0464  11.1064  11.1410  11.1649  11.1813  11.1931  11.2022
    11.2050  11.2439  11.2649  11.2724  11.2769  11.2844  11.2902  11.2980
    11.3008  11.3075  11.3269  11.3452  11.3607  11.3716  11.3824  11.3862
    11.3899  11.4033  11.4042  11.4119  11.4311  11.4668  11.4813  11.4960
    11.5063  11.5176  11.5307  11.5873  11.6119  11.6217  11.6438  11.6832
    11.6864  11.6923  11.7184  11.7251  11.7370  11.7517  11.7552  11.7998
    11.8051  11.8772  11.9052  11.9122  11.9274  11.9452  11.9545  11.9614
    11.9741  11.9834  12.0036  12.0426  12.0682  12.0928  12.1037  12.1161
    12.1471  12.1887  12.1997  12.2608  12.2736  12.2812  12.3276  12.3393
    12.3943  13.1299  13.1409  13.3063  13.3372  13.3481  13.3560  13.3611
    13.4069  13.4403  13.5993  13.6247  13.6445  13.6552  13.6654  13.6999
    13.7134  13.7298  13.7698  13.7929  13.8098  13.8212  13.8358  13.8397
    13.8643  13.8733  13.8994  13.9234  13.9283  13.9350  13.9501  13.9593
    13.9736  14.0055  14.0553  14.0795  14.1180  14.1287  14.1405  14.1658
    14.1689  14.1746  14.1836  14.2029  14.2305  14.2394  14.2746  14.3070
    14.3328  14.3411  14.3578  14.3634  14.4028  14.4237  14.4320  14.4784
    14.5090  14.5427  14.5530  14.6431  14.6726  14.7236  14.7324  14.7596
    14.7723  14.7821  14.7893  14.8040  14.8215  14.8465  14.8773  14.8835
    14.9215  14.9364  14.9512  14.9793  15.0013  15.0556  15.0673  15.1536
    15.1743  15.2423  15.2607  15.2666  15.3663  15.3985  15.4241  15.4834
    15.4947

     occupation numbers 
     1.0000   1.0000   1.0000   1.0000   1.0000   1.0000   1.0000   1.0000
     1.0000   1.0000   1.0000   1.0000   1.0000   1.0000   1.0000   1.0000
     1.0000   1.0000   1.0000   1.0000   1.0000   1.0000   1.0000   1.0000
     1.0000   1.0000   1.0000   1.0000   1.0000   1.0000   1.0000   1.0000
     1.0000   1.0000   1.0000   1.0000   1.0000   1.0000   1.0000   1.0000
     1.0000   1.0000   1.0000   1.0000   1.0000   1.0000   1.0000   1.0000
     1.0000   1.0000   1.0000   1.0000   1.0000   1.0000   1.0000   1.0000
     1.0000   1.0000   1.0000   1.0000   1.0000   1.0000   1.0000   1.0000
     1.0000   1.0000   1.0000   1.0000   1.0000   1.0000   1.0000   1.0000
     1.0000   1.0000   1.0000   1.0000   1.0000   1.0000   1.0000   1.0000
     1.0000   1.0000   1.0000   1.0000   1.0000   1.0000   1.0000   1.0000
     1.0000   1.0000   1.0000   1.0000   1.0000   1.0000   1.0000   1.0000
     1.0000   1.0000   1.0000   1.0000   1.0000   1.0000   1.0000   1.0000
     1.0000   1.0000   1.0000   1.0000   1.0000   1.0000   1.0000   1.0000
     1.0000   1.0000   1.0000   1.0000   1.0000   1.0000   1.0000   1.0000
     1.0000   1.0000   1.0000   1.0000   1.0000   1.0000   1.0000   1.0000
     1.0000   1.0000   1.0000   1.0000   1.0000   1.0000   1.0000   1.0000
     1.0000   1.0000   1.0000   1.0000   1.0000   1.0000   1.0000   1.0000
     1.0000   1.0000   1.0000   1.0000   1.0000   1.0000   1.0000   1.0000
     1.0000   1.0000   1.0000   1.0000   1.0000   1.0000   1.0000   1.0000
     1.0000   1.0000   1.0000   1.0000   1.0000   1.0000   1.0000   1.0000
     1.0000   1.0000   1.0000   1.0000   1.0000   1.0000   1.0000   1.0000
     1.0000   1.0000   1.0000   1.0000   1.0000   1.0000   1.0000   1.0000
     1.0000   1.0000   1.0000   1.0000   1.0000   1.0000   1.0000   1.0000
     1.0000   1.0000   1.0000   1.0000   1.0000   1.0000   1.0000   1.0000
     1.0000   1.0000   1.0000   1.0000   1.0000   1.0000   1.0000   1.0000
     1.0000   1.0000   1.0000   1.0000   1.0000   1.0000   1.0000   1.0000
     1.0000   1.0000   1.0000   1.0000   1.0000   1.0000   1.0000   1.0000
     1.0000   1.0000   1.0000   1.0000   1.0000   1.0000   1.0000   1.0000
     1.0000   1.0000   1.0000   1.0000   1.0000   1.0000   1.0000   1.0000
     1.0000   1.0000   1.0000   1.0000   1.0000   1.0000   1.0000   1.0000
     1.0000   1.0000   1.0000   1.0000   1.0000   1.0000   1.0000   1.0000
     1.0000   1.0000   1.0000   1.0000   1.0000   1.0000   1.0000   1.0000
     1.0000   1.0000   1.0000   1.0000   1.0000   1.0000   1.0000   1.0000
     1.0000   1.0000   1.0000   1.0000   1.0000   1.0000   1.0000   1.0000
     1.0000   1.0000   1.0000   1.0000   1.0000   1.0000   1.0000   1.0000
     1.0000   1.0000   1.0000   1.0000   1.0000   1.0000   1.0000   1.0000
     1.0000   1.0000   1.0000   1.0000   1.0000   1.0000   1.0000   1.0000
     1.0000   1.0000   1.0000   1.0000   1.0000   1.0000   1.0000   1.0000
     1.0000   1.0000   1.0000   1.0000   1.0000   1.0000   1.0000   1.0000
     1.0000   1.0000   1.0000   1.0000   1.0000   1.0000   1.0000   1.0000
     1.0000   1.0000   1.0000   1.0000   1.0000   1.0000   1.0000   1.0000
     1.0000   1.0000   1.0000   1.0000   1.0000   1.0000   1.0000   1.0000
     1.0000   1.0000   1.0000   1.0000   1.0000   1.0000   1.0000   1.0000
     1.0000   1.0000   1.0000   1.0000   1.0000   1.0000   1.0000   1.0000
     1.0000   1.0000   1.0000   1.0000   1.0000   1.0000   1.0000   1.0000
     1.0000   1.0000   1.0000   1.0000   1.0000   1.0000   1.0000   1.0000
     1.0000   1.0000   1.0000   1.0000   1.0000   1.0000   1.0000   1.0000
     1.0000   1.0000   1.0000   1.0000   1.0000   1.0000   1.0000   1.0000
     1.0000   1.0000   1.0000   1.0000   1.0000   1.0000   1.0000   1.0000
     1.0000   1.0000   1.0000   1.0000   1.0000   1.0000   1.0001   1.0002
     1.0002   1.0003   1.0005   1.0006   1.0008   1.0011   1.0012   1.0032
     1.0035   1.0126   1.0191   1.0211   1.0258   1.0322   1.0358   1.0386
     1.0441   1.0483   1.0576   1.0742   1.0814   1.0831   1.0816   1.0777
     1.0568   0.9981   0.9763   0.8100   0.7670   0.7407   0.5718   0.5287
     0.3401   0.0000   0.0000   0.0000   0.0000   0.0000   0.0000   0.0000
     0.0000   0.0000   0.0000   0.0000   0.0000   0.0000   0.0000   0.0000
     0.0000   0.0000   0.0000   0.0000   0.0000   0.0000   0.0000   0.0000
     0.0000   0.0000   0.0000   0.0000   0.0000   0.0000   0.0000   0.0000
     0.0000   0.0000   0.0000   0.0000   0.0000   0.0000   0.0000   0.0000
     0.0000   0.0000   0.0000   0.0000   0.0000   0.0000   0.0000   0.0000
     0.0000   0.0000   0.0000   0.0000   0.0000   0.0000   0.0000   0.0000
     0.0000   0.0000   0.0000   0.0000   0.0000   0.0000   0.0000   0.0000
     0.0000   0.0000   0.0000   0.0000   0.0000   0.0000   0.0000   0.0000
     0.0000   0.0000   0.0000   0.0000   0.0000   0.0000   0.0000   0.0000
     0.0000   0.0000   0.0000   0.0000   0.0000   0.0000   0.0000   0.0000
     0.0000

          k = 0.0000 0.0000 0.2186 ( 69203 PWs)   bands (ev):

   -75.3005 -75.0455 -74.9277 -74.9110 -74.9108 -74.8942 -74.8852 -74.8810
   -74.8763 -74.8749 -74.8684 -74.8624 -74.8618 -74.8606 -74.8599 -74.8592
   -74.8590 -74.8588 -74.8544 -74.8538 -74.8533 -74.8530 -74.8524 -74.8499
   -74.8493 -74.8486 -74.8480 -74.8455 -74.8451 -74.8404 -74.8368 -41.3600
   -41.3130 -41.1324 -41.0632 -41.0212 -41.0209 -41.0152 -40.9699 -40.9687
   -40.9514 -40.9446 -40.9419 -40.9403 -40.9384 -40.9330 -40.9324 -40.9319
   -40.9311 -40.9301 -40.9297 -40.9291 -40.9287 -40.9285 -40.9276 -40.9274
   -40.9268 -40.9266 -40.9258 -40.9256 -40.9242 -40.9222 -40.9156 -40.9149
   -40.9124 -40.9002 -40.8503 -40.8464 -40.8344 -40.8310 -40.8164 -40.8161
   -40.8141 -40.8115 -40.8099 -40.8057 -40.8027 -40.8020 -40.7986 -40.7968
   -40.7957 -40.7952 -40.7943 -40.7942 -40.7921 -40.7911 -40.7905 -40.7900
   -40.7887 -40.7883 -40.7881 -40.7877 -40.7873 -40.7869 -40.7840 -40.7830
   -40.7812 -40.7804 -40.7780 -40.7771 -40.7762 -40.7746 -40.7691 -40.7667
   -40.7630 -40.7598 -40.7579 -40.7561 -40.7545 -40.7530 -40.7521 -40.7507
   -40.7486 -40.7466 -40.7462 -40.7452 -40.7434 -40.7428 -40.7393 -40.7378
   -40.7363 -40.7350 -40.7307 -40.7237  -4.3171  -4.1367  -3.5263  -3.4349
    -3.4043  -3.2870  -3.2573  -3.0909  -2.9828  -2.8851  -2.8436  -2.7846
    -2.7778  -2.7572  -2.6142  -2.5651  -2.5360  -2.5116  -2.4838  -2.4379
    -2.4322  -2.4118  -2.3133  -2.2950  -2.2698  -2.2204  -2.2074  -2.1231
    -2.1162  -2.0806  -1.9839  -1.9343  -1.3204  -1.2961  -1.1580  -1.1203
    -0.7161  -0.6559  -0.6286  -0.6015  -0.5502  -0.5300  -0.4519  -0.4331
    -0.3651  -0.3571  -0.2905  -0.2093  -0.1500  -0.0782   0.1111   0.1220
     0.1687   0.2221   0.2394   0.3070   0.3495   0.3638   0.4092   0.4794
     0.4843   0.5084   0.5654   0.6573   4.5726   4.7747   4.7811   4.8447
     4.9629   4.9795   5.0356   5.2306   5.2674   5.2878   5.3200   5.3550
     5.3725   5.3786   5.4077   5.4452   5.4781   5.5116   5.5206   5.5362
     5.5481   5.5642   5.5971   5.6051   5.6506   5.7060   5.8104   5.8444
     5.9193   5.9564   5.9687   5.9778   6.0067   6.0970   6.1705   6.2039
     6.3881   6.4011   6.4231   6.4420   6.4748   6.4811   6.4904   6.5399
     6.5975   6.6455   6.7134   6.7417   6.8029   6.8406   6.8523   6.8788
     6.9008   6.9285   6.9581   7.0326   7.0706   7.1228   7.1987   7.2426
     7.2590   7.2878   7.3028   7.3359   7.3512   7.4100   7.4187   7.4428
     7.4932   7.5288   7.6240   7.6781   7.7424   7.7672   7.7817   7.8472
     7.8692   7.8792   7.8987   7.9019   7.9425   7.9839   8.0091   8.0376
     8.0760   8.1005   8.1152   8.1284   8.1759   8.1934   8.2294   8.2668
     8.2954   8.3364   8.3525   8.3628   8.3888   8.3966   8.4098   8.4172
     8.4291   8.4489   8.4533   8.4730   8.4909   8.5201   8.5363   8.5423
     8.5754   8.5957   8.6202   8.6776   8.7009   8.7238   8.7688   8.7924
     8.8033   8.8211   8.8385   8.8572   8.8637   8.8769   8.9332   8.9977
     9.0576   9.0721   9.1214   9.1725   9.2060   9.2494   9.3334   9.3572
     9.4022   9.4492   9.4777   9.4851   9.4929   9.5108   9.5239   9.5530
     9.5744   9.6034   9.6659   9.6728   9.7697   9.8138   9.8466   9.8765
     9.9283  10.0175  10.0343  10.1331  10.1790  10.2404  10.2628  10.3722
    10.4333  10.4421  10.4868  10.4970  10.5023  10.5339  10.5698  10.5950
    10.6737  10.6892  10.7221  10.7493  10.7747  10.7961  10.8089  10.8183
    10.8450  10.8605  10.8850  10.9170  10.9407  10.9980  11.0043  11.0609
    11.0828  11.1258  11.1358  11.1579  11.1819  11.2116  11.2234  11.2393
    11.2493  11.2539  11.2637  11.2766  11.2803  11.2883  11.2963  11.2984
    11.3221  11.3455  11.3638  11.3839  11.4099  11.4190  11.4265  11.4378
    11.4632  11.4687  11.4796  11.4890  11.4922  11.5018  11.5111  11.5125
    11.5213  11.5338  11.5552  11.5712  11.5825  11.6166  11.6330  11.6481
    11.6514  11.6998  11.7117  11.7246  11.7580  11.7830  11.8020  11.8260
    11.8548  11.9014  11.9201  11.9422  11.9532  11.9626  11.9894  11.9975
    12.0024  12.0042  12.0314  12.0379  12.0526  12.0609  12.0921  12.1197
    12.1340  12.1406  12.1618  12.1885  12.2027  12.2220  12.2538  12.3091
    12.3970  13.1654  13.1812  13.2737  13.2975  13.3524  13.4260  13.4380
    13.4683  13.4859  13.5172  13.5261  13.5794  13.5975  13.6240  13.6622
    13.6835  13.7057  13.7114  13.7223  13.7535  13.7764  13.7937  13.8102
    13.8311  13.8393  13.8484  13.8636  13.8821  13.9305  13.9456  13.9610
    13.9965  14.0466  14.0564  14.0687  14.1359  14.1474  14.1565  14.1772
    14.1949  14.2014  14.2174  14.2724  14.2996  14.3272  14.3484  14.3829
    14.4279  14.4348  14.4397  14.4474  14.4589  14.4725  14.4856  14.5047
    14.5075  14.5249  14.5657  14.5696  14.6002  14.6281  14.6356  14.6473
    14.6615  14.7163  14.7429  14.8003  14.8402  14.8532  14.8883  14.9178
    14.9647  14.9895  15.0388  15.0517  15.0577  15.1159  15.1370  15.1612
    15.1762  15.2068  15.2356  15.2940  15.3040  15.3464  15.3649  15.3880
    15.4230

     occupation numbers 
     1.0000   1.0000   1.0000   1.0000   1.0000   1.0000   1.0000   1.0000
     1.0000   1.0000   1.0000   1.0000   1.0000   1.0000   1.0000   1.0000
     1.0000   1.0000   1.0000   1.0000   1.0000   1.0000   1.0000   1.0000
     1.0000   1.0000   1.0000   1.0000   1.0000   1.0000   1.0000   1.0000
     1.0000   1.0000   1.0000   1.0000   1.0000   1.0000   1.0000   1.0000
     1.0000   1.0000   1.0000   1.0000   1.0000   1.0000   1.0000   1.0000
     1.0000   1.0000   1.0000   1.0000   1.0000   1.0000   1.0000   1.0000
     1.0000   1.0000   1.0000   1.0000   1.0000   1.0000   1.0000   1.0000
     1.0000   1.0000   1.0000   1.0000   1.0000   1.0000   1.0000   1.0000
     1.0000   1.0000   1.0000   1.0000   1.0000   1.0000   1.0000   1.0000
     1.0000   1.0000   1.0000   1.0000   1.0000   1.0000   1.0000   1.0000
     1.0000   1.0000   1.0000   1.0000   1.0000   1.0000   1.0000   1.0000
     1.0000   1.0000   1.0000   1.0000   1.0000   1.0000   1.0000   1.0000
     1.0000   1.0000   1.0000   1.0000   1.0000   1.0000   1.0000   1.0000
     1.0000   1.0000   1.0000   1.0000   1.0000   1.0000   1.0000   1.0000
     1.0000   1.0000   1.0000   1.0000   1.0000   1.0000   1.0000   1.0000
     1.0000   1.0000   1.0000   1.0000   1.0000   1.0000   1.0000   1.0000
     1.0000   1.0000   1.0000   1.0000   1.0000   1.0000   1.0000   1.0000
     1.0000   1.0000   1.0000   1.0000   1.0000   1.0000   1.0000   1.0000
     1.0000   1.0000   1.0000   1.0000   1.0000   1.0000   1.0000   1.0000
     1.0000   1.0000   1.0000   1.0000   1.0000   1.0000   1.0000   1.0000
     1.0000   1.0000   1.0000   1.0000   1.0000   1.0000   1.0000   1.0000
     1.0000   1.0000   1.0000   1.0000   1.0000   1.0000   1.0000   1.0000
     1.0000   1.0000   1.0000   1.0000   1.0000   1.0000   1.0000   1.0000
     1.0000   1.0000   1.0000   1.0000   1.0000   1.0000   1.0000   1.0000
     1.0000   1.0000   1.0000   1.0000   1.0000   1.0000   1.0000   1.0000
     1.0000   1.0000   1.0000   1.0000   1.0000   1.0000   1.0000   1.0000
     1.0000   1.0000   1.0000   1.0000   1.0000   1.0000   1.0000   1.0000
     1.0000   1.0000   1.0000   1.0000   1.0000   1.0000   1.0000   1.0000
     1.0000   1.0000   1.0000   1.0000   1.0000   1.0000   1.0000   1.0000
     1.0000   1.0000   1.0000   1.0000   1.0000   1.0000   1.0000   1.0000
     1.0000   1.0000   1.0000   1.0000   1.0000   1.0000   1.0000   1.0000
     1.0000   1.0000   1.0000   1.0000   1.0000   1.0000   1.0000   1.0000
     1.0000   1.0000   1.0000   1.0000   1.0000   1.0000   1.0000   1.0000
     1.0000   1.0000   1.0000   1.0000   1.0000   1.0000   1.0000   1.0000
     1.0000   1.0000   1.0000   1.0000   1.0000   1.0000   1.0000   1.0000
     1.0000   1.0000   1.0000   1.0000   1.0000   1.0000   1.0000   1.0000
     1.0000   1.0000   1.0000   1.0000   1.0000   1.0000   1.0000   1.0000
     1.0000   1.0000   1.0000   1.0000   1.0000   1.0000   1.0000   1.0000
     1.0000   1.0000   1.0000   1.0000   1.0000   1.0000   1.0000   1.0000
     1.0000   1.0000   1.0000   1.0000   1.0000   1.0000   1.0000   1.0000
     1.0000   1.0000   1.0000   1.0000   1.0000   1.0000   1.0000   1.0000
     1.0000   1.0000   1.0000   1.0000   1.0000   1.0000   1.0000   1.0000
     1.0000   1.0000   1.0000   1.0000   1.0000   1.0000   1.0000   1.0000
     1.0000   1.0000   1.0000   1.0000   1.0000   1.0000   1.0000   1.0000
     1.0000   1.0000   1.0000   1.0000   1.0000   1.0000   1.0000   1.0000
     1.0000   1.0000   1.0000   1.0000   1.0000   1.0000   1.0000   1.0000
     1.0000   1.0000   1.0000   1.0000   1.0000   1.0000   1.0000   1.0000
     1.0000   1.0000   1.0000   1.0000   1.0000   1.0000   1.0000   1.0000
     1.0000   1.0000   1.0000   1.0000   1.0000   1.0000   1.0000   1.0000
     1.0000   1.0000   1.0000   1.0000   1.0000   1.0000   1.0001   1.0001
     1.0001   1.0003   1.0005   1.0006   1.0013   1.0023   1.0033   1.0052
     1.0087   1.0181   1.0235   1.0310   1.0353   1.0392   1.0510   1.0548
     1.0570   1.0579   1.0698   1.0724   1.0775   1.0798   1.0832   1.0762
     1.0677   1.0627   1.0402   0.9985   0.9698   0.9239   0.8323   0.6402
     0.3320   0.0000   0.0000   0.0000   0.0000   0.0000   0.0000   0.0000
     0.0000   0.0000   0.0000   0.0000   0.0000   0.0000   0.0000   0.0000
     0.0000   0.0000   0.0000   0.0000   0.0000   0.0000   0.0000   0.0000
     0.0000   0.0000   0.0000   0.0000   0.0000   0.0000   0.0000   0.0000
     0.0000   0.0000   0.0000   0.0000   0.0000   0.0000   0.0000   0.0000
     0.0000   0.0000   0.0000   0.0000   0.0000   0.0000   0.0000   0.0000
     0.0000   0.0000   0.0000   0.0000   0.0000   0.0000   0.0000   0.0000
     0.0000   0.0000   0.0000   0.0000   0.0000   0.0000   0.0000   0.0000
     0.0000   0.0000   0.0000   0.0000   0.0000   0.0000   0.0000   0.0000
     0.0000   0.0000   0.0000   0.0000   0.0000   0.0000   0.0000   0.0000
     0.0000   0.0000   0.0000   0.0000   0.0000   0.0000   0.0000   0.0000
     0.0000

          k = 0.0000-0.4095 0.0000 ( 69190 PWs)   bands (ev):

   -75.3005 -75.0455 -74.9277 -74.9109 -74.9108 -74.8941 -74.8852 -74.8809
   -74.8762 -74.8749 -74.8683 -74.8623 -74.8618 -74.8605 -74.8599 -74.8591
   -74.8589 -74.8589 -74.8544 -74.8537 -74.8534 -74.8529 -74.8525 -74.8499
   -74.8492 -74.8486 -74.8481 -74.8454 -74.8451 -74.8404 -74.8368 -41.3594
   -41.3135 -41.1322 -41.0627 -41.0209 -41.0209 -41.0151 -40.9694 -40.9687
   -40.9514 -40.9444 -40.9415 -40.9400 -40.9381 -40.9324 -40.9319 -40.9318
   -40.9307 -40.9298 -40.9294 -40.9290 -40.9282 -40.9279 -40.9274 -40.9269
   -40.9268 -40.9262 -40.9258 -40.9254 -40.9240 -40.9219 -40.9151 -40.9148
   -40.9122 -40.8999 -40.8506 -40.8460 -40.8340 -40.8307 -40.8166 -40.8159
   -40.8137 -40.8110 -40.8096 -40.8053 -40.8025 -40.8023 -40.7983 -40.7961
   -40.7952 -40.7947 -40.7942 -40.7940 -40.7919 -40.7906 -40.7902 -40.7896
   -40.7885 -40.7879 -40.7878 -40.7876 -40.7874 -40.7870 -40.7840 -40.7829
   -40.7820 -40.7800 -40.7781 -40.7772 -40.7759 -40.7743 -40.7695 -40.7663
   -40.7631 -40.7603 -40.7583 -40.7558 -40.7549 -40.7535 -40.7527 -40.7515
   -40.7492 -40.7469 -40.7461 -40.7446 -40.7441 -40.7436 -40.7434 -40.7385
   -40.7362 -40.7355 -40.7315 -40.7243  -4.1558  -4.1249  -3.7203  -3.6277
    -3.6041  -3.5909  -3.0118  -2.7830  -2.7515  -2.7488  -2.7076  -2.5818
    -2.5753  -2.5631  -2.5566  -2.5406  -2.5241  -2.5176  -2.5118  -2.4897
    -2.4653  -2.4603  -2.4569  -2.4111  -2.3628  -2.3187  -2.3171  -2.2805
    -2.2053  -2.1573  -2.1447  -2.1304  -1.0181  -0.9726  -0.9607  -0.9552
    -0.7757  -0.6900  -0.6872  -0.6830  -0.6794  -0.6432  -0.6215  -0.5646
    -0.3388  -0.3166  -0.3012  -0.1812   0.0450   0.0575   0.0673   0.0721
     0.1368   0.1603   0.2220   0.2897   0.2954   0.3137   0.4442   0.4547
     0.4647   0.5260   0.5586   0.6465   4.6470   4.8287   4.8728   5.2226
     5.2376   5.2410   5.2533   5.2859   5.3000   5.3158   5.3299   5.3510
     5.3564   5.3609   5.3664   5.3723   5.3783   5.3816   5.3925   5.3983
     5.4077   5.4323   5.4501   5.4517   5.4769   5.5223   5.7002   5.7465
     5.7610   5.7865   5.9992   6.1545   6.1833   6.1998   6.2518   6.2791
     6.3270   6.3418   6.3660   6.3962   6.5408   6.6319   6.6456   6.6549
     6.6630   6.6774   6.7110   6.7434   6.7496   6.7678   6.7732   6.7996
     6.8324   6.8522   7.0072   7.1071   7.1161   7.1791   7.2367   7.2467
     7.2623   7.3336   7.4710   7.5246   7.5697   7.5773   7.5995   7.6073
     7.6215   7.6896   7.6970   7.7247   7.7283   7.7645   7.7933   7.8430
     7.8537   7.8705   7.8747   7.8871   7.8990   7.9059   7.9181   7.9253
     7.9422   7.9530   7.9792   7.9965   8.0048   8.0248   8.0297   8.0552
     8.0936   8.1412   8.1556   8.1620   8.1950   8.2662   8.2755   8.3072
     8.3290   8.3601   8.3709   8.3872   8.4010   8.4360   8.4559   8.4836
     8.5386   8.6319   8.7730   8.8098   8.8164   8.8352   8.8478   8.8854
     8.8877   8.9092   8.9505   8.9834   9.0343   9.0546   9.0618   9.1231
     9.1415   9.1724   9.1850   9.1986   9.2581   9.2806   9.3458   9.4017
     9.4451   9.4565   9.4666   9.5204   9.5276   9.5336   9.5435   9.5613
     9.5619   9.5824   9.5861   9.5996   9.6628   9.7140   9.7934   9.8876
     9.9070   9.9809  10.0603  10.0961  10.1230  10.1514  10.3185  10.4056
    10.4115  10.4214  10.4504  10.5509  10.5970  10.6166  10.6330  10.6505
    10.7539  10.7731  10.7912  10.7996  10.8099  10.8222  10.8384  10.8476
    10.8635  10.9082  10.9084  10.9209  10.9538  10.9785  10.9870  11.0024
    11.0060  11.0207  11.1100  11.1198  11.1944  11.2047  11.2133  11.2250
    11.2797  11.3019  11.3053  11.3116  11.3161  11.3192  11.3267  11.3331
    11.3390  11.3518  11.3598  11.3831  11.3982  11.4218  11.4470  11.4545
    11.4599  11.4766  11.4851  11.5005  11.5028  11.5205  11.5214  11.5351
    11.5399  11.5437  11.5524  11.5632  11.6222  11.6344  11.6421  11.6542
    11.6884  11.7013  11.7070  11.7593  11.7729  11.8082  11.8186  11.8359
    11.8666  11.8869  11.8974  11.9131  11.9303  11.9347  11.9370  11.9541
    11.9754  11.9786  11.9815  11.9873  12.0050  12.0107  12.0235  12.0387
    12.0503  12.0668  12.0919  12.1261  12.1619  12.2392  12.2589  12.2773
    12.4218  13.2415  13.2993  13.3341  13.3771  13.3914  13.3994  13.5173
    13.5497  13.5604  13.5987  13.6100  13.6193  13.6283  13.6375  13.6589
    13.6730  13.7204  13.7450  13.7506  13.7624  13.8262  13.8531  13.8698
    13.8774  13.8842  13.9022  13.9196  13.9417  13.9575  13.9645  13.9820
    13.9853  14.0050  14.0205  14.0278  14.0291  14.0424  14.0519  14.0620
    14.1240  14.1335  14.1367  14.1630  14.2066  14.2428  14.2511  14.2558
    14.2595  14.2666  14.2691  14.2736  14.3024  14.3119  14.3236  14.3538
    14.4049  14.4323  14.4494  14.7208  14.8025  14.8212  14.8358  14.8498
    14.8770  14.8944  14.9028  14.9644  14.9841  15.0069  15.0414  15.0615
    15.0702  15.0921  15.1016  15.1161  15.1196  15.1488  15.1644  15.2068
    15.2385  15.2551  15.2594  15.3048  15.3129  15.3233  15.3302  15.3338
    15.3774

     occupation numbers 
     1.0000   1.0000   1.0000   1.0000   1.0000   1.0000   1.0000   1.0000
     1.0000   1.0000   1.0000   1.0000   1.0000   1.0000   1.0000   1.0000
     1.0000   1.0000   1.0000   1.0000   1.0000   1.0000   1.0000   1.0000
     1.0000   1.0000   1.0000   1.0000   1.0000   1.0000   1.0000   1.0000
     1.0000   1.0000   1.0000   1.0000   1.0000   1.0000   1.0000   1.0000
     1.0000   1.0000   1.0000   1.0000   1.0000   1.0000   1.0000   1.0000
     1.0000   1.0000   1.0000   1.0000   1.0000   1.0000   1.0000   1.0000
     1.0000   1.0000   1.0000   1.0000   1.0000   1.0000   1.0000   1.0000
     1.0000   1.0000   1.0000   1.0000   1.0000   1.0000   1.0000   1.0000
     1.0000   1.0000   1.0000   1.0000   1.0000   1.0000   1.0000   1.0000
     1.0000   1.0000   1.0000   1.0000   1.0000   1.0000   1.0000   1.0000
     1.0000   1.0000   1.0000   1.0000   1.0000   1.0000   1.0000   1.0000
     1.0000   1.0000   1.0000   1.0000   1.0000   1.0000   1.0000   1.0000
     1.0000   1.0000   1.0000   1.0000   1.0000   1.0000   1.0000   1.0000
     1.0000   1.0000   1.0000   1.0000   1.0000   1.0000   1.0000   1.0000
     1.0000   1.0000   1.0000   1.0000   1.0000   1.0000   1.0000   1.0000
     1.0000   1.0000   1.0000   1.0000   1.0000   1.0000   1.0000   1.0000
     1.0000   1.0000   1.0000   1.0000   1.0000   1.0000   1.0000   1.0000
     1.0000   1.0000   1.0000   1.0000   1.0000   1.0000   1.0000   1.0000
     1.0000   1.0000   1.0000   1.0000   1.0000   1.0000   1.0000   1.0000
     1.0000   1.0000   1.0000   1.0000   1.0000   1.0000   1.0000   1.0000
     1.0000   1.0000   1.0000   1.0000   1.0000   1.0000   1.0000   1.0000
     1.0000   1.0000   1.0000   1.0000   1.0000   1.0000   1.0000   1.0000
     1.0000   1.0000   1.0000   1.0000   1.0000   1.0000   1.0000   1.0000
     1.0000   1.0000   1.0000   1.0000   1.0000   1.0000   1.0000   1.0000
     1.0000   1.0000   1.0000   1.0000   1.0000   1.0000   1.0000   1.0000
     1.0000   1.0000   1.0000   1.0000   1.0000   1.0000   1.0000   1.0000
     1.0000   1.0000   1.0000   1.0000   1.0000   1.0000   1.0000   1.0000
     1.0000   1.0000   1.0000   1.0000   1.0000   1.0000   1.0000   1.0000
     1.0000   1.0000   1.0000   1.0000   1.0000   1.0000   1.0000   1.0000
     1.0000   1.0000   1.0000   1.0000   1.0000   1.0000   1.0000   1.0000
     1.0000   1.0000   1.0000   1.0000   1.0000   1.0000   1.0000   1.0000
     1.0000   1.0000   1.0000   1.0000   1.0000   1.0000   1.0000   1.0000
     1.0000   1.0000   1.0000   1.0000   1.0000   1.0000   1.0000   1.0000
     1.0000   1.0000   1.0000   1.0000   1.0000   1.0000   1.0000   1.0000
     1.0000   1.0000   1.0000   1.0000   1.0000   1.0000   1.0000   1.0000
     1.0000   1.0000   1.0000   1.0000   1.0000   1.0000   1.0000   1.0000
     1.0000   1.0000   1.0000   1.0000   1.0000   1.0000   1.0000   1.0000
     1.0000   1.0000   1.0000   1.0000   1.0000   1.0000   1.0000   1.0000
     1.0000   1.0000   1.0000   1.0000   1.0000   1.0000   1.0000   1.0000
     1.0000   1.0000   1.0000   1.0000   1.0000   1.0000   1.0000   1.0000
     1.0000   1.0000   1.0000   1.0000   1.0000   1.0000   1.0000   1.0000
     1.0000   1.0000   1.0000   1.0000   1.0000   1.0000   1.0000   1.0000
     1.0000   1.0000   1.0000   1.0000   1.0000   1.0000   1.0000   1.0000
     1.0000   1.0000   1.0000   1.0000   1.0000   1.0000   1.0000   1.0000
     1.0000   1.0000   1.0000   1.0000   1.0000   1.0000   1.0000   1.0000
     1.0000   1.0000   1.0000   1.0000   1.0000   1.0000   1.0000   1.0000
     1.0000   1.0000   1.0000   1.0000   1.0000   1.0000   1.0000   1.0000
     1.0000   1.0000   1.0000   1.0000   1.0000   1.0000   1.0000   1.0000
     1.0000   1.0000   1.0000   1.0000   1.0000   1.0000   1.0000   1.0000
[...]
     atom   72 type  2   force =     0.00497751    0.00289148    0.00005532
     atom   73 type  1   force =    -0.00008852    0.00011731    0.00027411
     atom   74 type  1   force =     0.00002118   -0.00006885    0.00022312
     atom   75 type  2   force =     0.00490281   -0.00285535   -0.00007254
     atom   76 type  2   force =    -0.00480755    0.00304165    0.00003659
     atom   77 type  2   force =    -0.00501730   -0.00302502   -0.00000210
     atom   78 type  2   force =     0.00516487    0.00324254    0.00021072
     atom   79 type  1   force =    -0.00172507    0.00061980   -0.00117037
     atom   80 type  1   force =     0.00074942   -0.00087900   -0.00179426
     atom   81 type  2   force =     0.00521307   -0.00263515    0.00031069
     atom   82 type  2   force =    -0.00511952    0.00310212    0.00022575
     atom   83 type  2   force =    -0.00502792   -0.00297430    0.00017872
     atom   84 type  2   force =     0.00637178    0.00382382   -0.00003541
     atom   85 type  1   force =     0.00106921   -0.00049914    0.00196533
     atom   86 type  2   force =     0.00270650   -0.01110809    0.00001389
     atom   87 type  2   force =    -0.00498361    0.00331682   -0.00000547
     atom   88 type  2   force =    -0.00512165   -0.00306271   -0.00023451
     atom   89 type  2   force =     0.00621891    0.00368326    0.00002373
     atom   90 type  1   force =    -0.00029794    0.00012309    0.00146239
     atom   91 type  1   force =    -0.00001797   -0.00010493   -0.00047048
     atom   92 type  2   force =     0.00511769   -0.00256909   -0.00029037
     atom   93 type  2   force =    -0.00519784    0.00321608   -0.00030202
     atom   94 type  2   force =    -0.00499793   -0.00304184    0.00001980
     atom   95 type  2   force =     0.00528399    0.00324332   -0.00026325
     atom   96 type  3   force =     0.00000000    0.00000000    0.00000000
     The Hubbard contrib.    to forces
     atom    1 type  1   force =     0.00000000    0.00000000    0.00000000
     atom    2 type  1   force =     0.00000000    0.00000000    0.00000000
     atom    3 type  2   force =     0.00000000    0.00000000    0.00000000
     atom    4 type  2   force =     0.00000000    0.00000000    0.00000000
     atom    5 type  2   force =     0.00000000    0.00000000    0.00000000
     atom    6 type  2   force =     0.00000000    0.00000000    0.00000000
     atom    7 type  1   force =     0.00000000    0.00000000    0.00000000
     atom    8 type  1   force =     0.00000000    0.00000000    0.00000000
     atom    9 type  2   force =     0.00000000    0.00000000    0.00000000
     atom   10 type  2   force =     0.00000000    0.00000000    0.00000000
     atom   11 type  2   force =     0.00000000    0.00000000    0.00000000
     atom   12 type  2   force =     0.00000000    0.00000000    0.00000000
     atom   13 type  1   force =     0.00000000    0.00000000    0.00000000
     atom   14 type  1   force =     0.00000000    0.00000000    0.00000000
     atom   15 type  2   force =     0.00000000    0.00000000    0.00000000
     atom   16 type  2   force =     0.00000000    0.00000000    0.00000000
     atom   17 type  2   force =     0.00000000    0.00000000    0.00000000
     atom   18 type  2   force =     0.00000000    0.00000000    0.00000000
     atom   19 type  1   force =     0.00000000    0.00000000    0.00000000
     atom   20 type  1   force =     0.00000000    0.00000000    0.00000000
     atom   21 type  2   force =     0.00000000    0.00000000    0.00000000
     atom   22 type  2   force =     0.00000000    0.00000000    0.00000000
     atom   23 type  2   force =     0.00000000    0.00000000    0.00000000
     atom   24 type  2   force =     0.00000000    0.00000000    0.00000000
     atom   25 type  1   force =     0.00000000    0.00000000    0.00000000
     atom   26 type  1   force =     0.00000000    0.00000000    0.00000000
     atom   27 type  2   force =     0.00000000    0.00000000    0.00000000
     atom   28 type  2   force =     0.00000000    0.00000000    0.00000000
     atom   29 type  2   force =     0.00000000    0.00000000    0.00000000
     atom   30 type  2   force =     0.00000000    0.00000000    0.00000000
     atom   31 type  1   force =     0.00000000    0.00000000    0.00000000
     atom   32 type  1   force =     0.00000000    0.00000000    0.00000000
     atom   33 type  2   force =     0.00000000    0.00000000    0.00000000
     atom   34 type  2   force =     0.00000000    0.00000000    0.00000000
     atom   35 type  2   force =     0.00000000    0.00000000    0.00000000
     atom   36 type  2   force =     0.00000000    0.00000000    0.00000000
     atom   37 type  1   force =     0.00000000    0.00000000    0.00000000
     atom   38 type  1   force =     0.00000000    0.00000000    0.00000000
     atom   39 type  2   force =     0.00000000    0.00000000    0.00000000
     atom   40 type  2   force =     0.00000000    0.00000000    0.00000000
     atom   41 type  2   force =     0.00000000    0.00000000    0.00000000
     atom   42 type  2   force =     0.00000000    0.00000000    0.00000000
     atom   43 type  1   force =     0.00000000    0.00000000    0.00000000
     atom   44 type  1   force =     0.00000000    0.00000000    0.00000000
     atom   45 type  2   force =     0.00000000    0.00000000    0.00000000
     atom   46 type  2   force =     0.00000000    0.00000000    0.00000000
     atom   47 type  2   force =     0.00000000    0.00000000    0.00000000
     atom   48 type  2   force =     0.00000000    0.00000000    0.00000000
     atom   49 type  1   force =     0.00000000    0.00000000    0.00000000
     atom   50 type  1   force =     0.00000000    0.00000000    0.00000000
     atom   51 type  2   force =     0.00000000    0.00000000    0.00000000
     atom   52 type  2   force =     0.00000000    0.00000000    0.00000000
     atom   53 type  2   force =     0.00000000    0.00000000    0.00000000
     atom   54 type  2   force =     0.00000000    0.00000000    0.00000000
     atom   55 type  1   force =     0.00000000    0.00000000    0.00000000
     atom   56 type  1   force =     0.00000000    0.00000000    0.00000000
     atom   57 type  2   force =     0.00000000    0.00000000    0.00000000
     atom   58 type  2   force =     0.00000000    0.00000000    0.00000000
     atom   59 type  2   force =     0.00000000    0.00000000    0.00000000
     atom   60 type  2   force =     0.00000000    0.00000000    0.00000000
     atom   61 type  1   force =     0.00000000    0.00000000    0.00000000
     atom   62 type  1   force =     0.00000000    0.00000000    0.00000000
     atom   63 type  2   force =     0.00000000    0.00000000    0.00000000
     atom   64 type  2   force =     0.00000000    0.00000000    0.00000000
     atom   65 type  2   force =     0.00000000    0.00000000    0.00000000
     atom   66 type  2   force =     0.00000000    0.00000000    0.00000000
     atom   67 type  1   force =     0.00000000    0.00000000    0.00000000
     atom   68 type  1   force =     0.00000000    0.00000000    0.00000000
     atom   69 type  2   force =     0.00000000    0.00000000    0.00000000
     atom   70 type  2   force =     0.00000000    0.00000000    0.00000000
     atom   71 type  2   force =     0.00000000    0.00000000    0.00000000
     atom   72 type  2   force =     0.00000000    0.00000000    0.00000000
     atom   73 type  1   force =     0.00000000    0.00000000    0.00000000
     atom   74 type  1   force =     0.00000000    0.00000000    0.00000000
     atom   75 type  2   force =     0.00000000    0.00000000    0.00000000
     atom   76 type  2   force =     0.00000000    0.00000000    0.00000000
     atom   77 type  2   force =     0.00000000    0.00000000    0.00000000
     atom   78 type  2   force =     0.00000000    0.00000000    0.00000000
     atom   79 type  1   force =     0.00000000    0.00000000    0.00000000
     atom   80 type  1   force =     0.00000000    0.00000000    0.00000000
     atom   81 type  2   force =     0.00000000    0.00000000    0.00000000
     atom   82 type  2   force =     0.00000000    0.00000000    0.00000000
     atom   83 type  2   force =     0.00000000    0.00000000    0.00000000
     atom   84 type  2   force =     0.00000000    0.00000000    0.00000000
     atom   85 type  1   force =     0.00000000    0.00000000    0.00000000
     atom   86 type  2   force =     0.00000000    0.00000000    0.00000000
     atom   87 type  2   force =     0.00000000    0.00000000    0.00000000
     atom   88 type  2   force =     0.00000000    0.00000000    0.00000000
     atom   89 type  2   force =     0.00000000    0.00000000    0.00000000
     atom   90 type  1   force =     0.00000000    0.00000000    0.00000000
     atom   91 type  1   force =     0.00000000    0.00000000    0.00000000
     atom   92 type  2   force =     0.00000000    0.00000000    0.00000000
     atom   93 type  2   force =     0.00000000    0.00000000    0.00000000
     atom   94 type  2   force =     0.00000000    0.00000000    0.00000000
     atom   95 type  2   force =     0.00000000    0.00000000    0.00000000
     atom   96 type  3   force =     0.00000000    0.00000000    0.00000000
     The SCF correction term to forces
     atom    1 type  1   force =     0.00000280    0.00000222    0.00007266
     atom    2 type  1   force =    -0.00000076    0.00002448    0.00014045
     atom    3 type  2   force =    -0.00000347    0.00000789    0.00002670
     atom    4 type  2   force =    -0.00000212   -0.00000064    0.00003797
     atom    5 type  2   force =    -0.00000116    0.00000614    0.00005329
     atom    6 type  2   force =    -0.00000263    0.00000271    0.00004733
     atom    7 type  1   force =     0.00001765   -0.00000098    0.00010382
     atom    8 type  1   force =     0.00000820    0.00004268    0.00002128
     atom    9 type  2   force =     0.00000363    0.00001216    0.00004420
     atom   10 type  2   force =    -0.00000430    0.00001460    0.00004657
     atom   11 type  2   force =     0.00001070    0.00001063    0.00001174
     atom   12 type  2   force =    -0.00000549    0.00000466    0.00001288
     atom   13 type  1   force =     0.00002073    0.00000474   -0.00006551
     atom   14 type  1   force =    -0.00002720    0.00002487   -0.00013724
     atom   15 type  2   force =     0.00000103    0.00001275   -0.00002886
     atom   16 type  2   force =     0.00000192    0.00001270   -0.00003922
     atom   17 type  2   force =    -0.00001203    0.00000390   -0.00005475
     atom   18 type  2   force =    -0.00000505    0.00000066   -0.00005418
     atom   19 type  1   force =     0.00000537    0.00001023   -0.00010689
     atom   20 type  1   force =    -0.00002735   -0.00000229   -0.00002059
     atom   21 type  2   force =    -0.00000702    0.00001026   -0.00004209
     atom   22 type  2   force =    -0.00001633   -0.00002269   -0.00004629
     atom   23 type  2   force =    -0.00002009    0.00000060   -0.00000866
     atom   24 type  2   force =    -0.00000407    0.00000173   -0.00000564
     atom   25 type  1   force =     0.00000252   -0.00000033    0.00007654
     atom   26 type  1   force =    -0.00000690   -0.00002085    0.00014251
     atom   27 type  2   force =    -0.00000300   -0.00000805    0.00003100
     atom   28 type  2   force =    -0.00000308   -0.00000152    0.00003296
     atom   29 type  2   force =     0.00000606   -0.00000805    0.00004878
     atom   30 type  2   force =    -0.00000696   -0.00000143    0.00006031
     atom   31 type  1   force =     0.00001706    0.00001087    0.00011798
     atom   32 type  1   force =     0.00001329   -0.00003976    0.00003643
     atom   33 type  2   force =     0.00000549   -0.00001356    0.00004560
     atom   34 type  2   force =    -0.00000581   -0.00001258    0.00004635
     atom   35 type  2   force =     0.00001251   -0.00001083    0.00001055
     atom   36 type  2   force =    -0.00000784   -0.00000213    0.00001786
     atom   37 type  1   force =     0.00002488    0.00000510   -0.00007660
     atom   38 type  1   force =    -0.00002282    0.00000256   -0.00017344
     atom   39 type  2   force =     0.00001009   -0.00001499   -0.00003225
     atom   40 type  2   force =    -0.00000655   -0.00001260   -0.00003490
     atom   41 type  2   force =     0.00000743   -0.00000837   -0.00005034
     atom   42 type  2   force =    -0.00003348    0.00000341   -0.00009215
     atom   43 type  1   force =     0.00000526   -0.00000810   -0.00012727
     atom   44 type  1   force =    -0.00003290    0.00000924   -0.00001554
     atom   45 type  2   force =    -0.00000651   -0.00000847   -0.00004363
     atom   46 type  2   force =    -0.00001164    0.00000629   -0.00004354
     atom   47 type  2   force =     0.00000348   -0.00000532   -0.00000940
     atom   48 type  2   force =    -0.00003615    0.00001265    0.00001702
     atom   49 type  1   force =    -0.00000329    0.00000177    0.00007654
     atom   50 type  1   force =     0.00000347    0.00001564    0.00012020
     atom   51 type  2   force =     0.00000050    0.00000192    0.00002909
     atom   52 type  2   force =     0.00000518    0.00000775    0.00002654
     atom   53 type  2   force =     0.00000234    0.00000330    0.00005302
     atom   54 type  2   force =    -0.00000290    0.00000608    0.00004512
     atom   55 type  1   force =    -0.00001590   -0.00000286    0.00010512
     atom   56 type  1   force =    -0.00000102    0.00000930    0.00004530
     atom   57 type  2   force =    -0.00000577    0.00000756    0.00004084
     atom   58 type  2   force =     0.00000964    0.00001135    0.00003917
     atom   59 type  2   force =    -0.00000421    0.00000776    0.00001129
     atom   60 type  2   force =    -0.00000114    0.00000890    0.00001008
     atom   61 type  1   force =    -0.00001974   -0.00000327   -0.00007818
     atom   62 type  1   force =     0.00002574   -0.00000671   -0.00014676
     atom   63 type  2   force =    -0.00000412    0.00000886   -0.00002543
     atom   64 type  2   force =     0.00000668    0.00000973   -0.00002256
     atom   65 type  2   force =     0.00002754   -0.00000923   -0.00007991
     atom   66 type  2   force =    -0.00000220    0.00001357   -0.00004545
     atom   67 type  1   force =    -0.00000489    0.00000743   -0.00010510
     atom   68 type  1   force =     0.00003179   -0.00000898   -0.00002176
     atom   69 type  2   force =     0.00000847   -0.00000358   -0.00004292
     atom   70 type  2   force =     0.00000986    0.00000591   -0.00004374
     atom   71 type  2   force =     0.00003451   -0.00001602    0.00001567
     atom   72 type  2   force =    -0.00000191    0.00000902   -0.00000991
     atom   73 type  1   force =    -0.00000192   -0.00000293    0.00014757
     atom   74 type  1   force =     0.00000281   -0.00002371    0.00013070
     atom   75 type  2   force =    -0.00000055   -0.00000046    0.00004019
     atom   76 type  2   force =     0.00000662   -0.00000736    0.00002937
     atom   77 type  2   force =    -0.00000068   -0.00000300    0.00004503
     atom   78 type  2   force =     0.00000619   -0.00000413    0.00004989
     atom   79 type  1   force =    -0.00003314    0.00001018    0.00011662
     atom   80 type  1   force =    -0.00000792   -0.00004640    0.00001242
     atom   81 type  2   force =    -0.00001106   -0.00001310    0.00004276
     atom   82 type  2   force =     0.00000879   -0.00001314    0.00003932
     atom   83 type  2   force =    -0.00000651   -0.00000450    0.00001172
     atom   84 type  2   force =     0.00001082   -0.00000019    0.00000946
     atom   85 type  1   force =     0.00002157   -0.00002171   -0.00012991
     atom   86 type  2   force =    -0.00002377   -0.00001076   -0.00004104
     atom   87 type  2   force =     0.00001294   -0.00001090   -0.00002949
     atom   88 type  2   force =    -0.00000104    0.00000457   -0.00005216
     atom   89 type  2   force =     0.00001975   -0.00000887   -0.00005067
     atom   90 type  1   force =     0.00000022   -0.00001354   -0.00014819
     atom   91 type  1   force =     0.00002734    0.00000197   -0.00000911
     atom   92 type  2   force =     0.00001095    0.00002001   -0.00004298
     atom   93 type  2   force =     0.00001205   -0.00000674   -0.00003936
     atom   94 type  2   force =     0.00000208    0.00000300   -0.00000419
     atom   95 type  2   force =     0.00002172   -0.00000557   -0.00000687
     atom   96 type  3   force =    -0.00000231    0.00000105   -0.00000318

     Total force =     0.018051     Total SCF correction =     0.000680

     Writing all to output data dir /tmp/neb_canonical_marc_96at_qe_VFe/image_06/tmp/image_06.save/ :
     XML data file, charge density, pseudopotentials, collected wavefunctions
 
     init_run     :      8.17s CPU     13.32s WALL (       1 calls)
     electrons    :    417.37s CPU    574.23s WALL (       1 calls)
     forces       :      3.72s CPU      5.24s WALL (       1 calls)

     Called by init_run:
     wfcinit      :      5.66s CPU      9.22s WALL (       1 calls)
     wfcinit:atom :      0.15s CPU      0.16s WALL (      16 calls)
     wfcinit:wfcr :      4.56s CPU      4.85s WALL (      16 calls)
     potinit      :      0.09s CPU      0.14s WALL (       1 calls)
     hinit0       :      2.15s CPU      1.77s WALL (       1 calls)

     Called by electrons:
     c_bands      :    359.67s CPU    474.24s WALL (      24 calls)
     sum_band     :     51.46s CPU     88.17s WALL (      24 calls)
     v_of_rho     :      1.05s CPU      0.75s WALL (      25 calls)
     v_h          :      0.41s CPU      0.20s WALL (      25 calls)
     v_xc         :      0.66s CPU      0.57s WALL (      26 calls)
     mix_rho      :      4.28s CPU     10.08s WALL (      24 calls)

     Called by c_bands:
     init_us_2    :      4.37s CPU      4.81s WALL (     800 calls)
     cegterg      :    314.42s CPU    314.58s WALL (     384 calls)

     Called by sum_band:
     sum_band:wei :      0.31s CPU      0.32s WALL (      24 calls)
     sum_band:loo :     50.72s CPU     87.29s WALL (      24 calls)
     sum_band:buf :     18.36s CPU     54.95s WALL (     384 calls)
     sum_band:ini :      2.14s CPU      2.21s WALL (     384 calls)

     Called by *egterg:
     cdiaghg      :     39.91s CPU     40.51s WALL (    1829 calls)
                                       40.49s GPU  (    1829 calls)
     cegterg:over :     42.52s CPU     42.56s WALL (    1445 calls)
     cegterg:upda :     16.17s CPU     16.18s WALL (    1445 calls)
     cegterg:last :     19.91s CPU     19.90s WALL (     758 calls)
     h_psi        :    175.06s CPU    175.03s WALL (    1845 calls)
     g_psi        :      0.53s CPU      0.54s WALL (    1445 calls)

     Called by h_psi:
     h_psi:calbec :      0.12s CPU      0.16s WALL (    1845 calls)
     vloc_psi     :    139.52s CPU    139.24s WALL (    1845 calls)
                                      139.22s GPU  (    1845 calls)
     add_vuspsi   :     34.34s CPU     34.47s WALL (    1845 calls)

     General routines
     calbec       :      0.12s CPU      0.15s WALL (    1909 calls)
     fft          :      0.01s CPU      0.05s WALL (     490 calls)
                                        0.04s GPU  (     490 calls)
     ffts         :      0.01s CPU      0.06s WALL (     665 calls)
                                        0.06s GPU  (     665 calls)
     fftw         :      0.97s CPU    123.78s WALL (   77136 calls)
                                      122.84s GPU  (   77136 calls)
     davcio       :      1.61s CPU    159.56s WALL (    1686 calls)
 
     Parallel routines
 
     PWSCF        :   7m10.35s CPU  10m 4.23s WALL

 
   This run was terminated on:  15:35:15  29May2026            

=------------------------------------------------------------------------------=
   JOB DONE.
=------------------------------------------------------------------------------=
