
     Program PWSCF v.7.5 starts on 29May2026 at  0:30: 7 

     This program is part of the open-source Quantum ESPRESSO suite
     for quantum simulation of materials; please cite
         "P. Giannozzi et al., J. Phys.:Condens. Matter 21 395502 (2009);
         "P. Giannozzi et al., J. Phys.:Condens. Matter 29 465901 (2017);
         "P. Giannozzi et al., J. Chem. Phys. 152 154105 (2020);
          URL http://www.quantum-espresso.org", 
     in publications or presentations arising from this work. More details at
     http://www.quantum-espresso.org/quote

     Parallel version (MPI & OpenMP), running on       6 processor cores
     Number of MPI processes:                 1
     Threads/MPI process:                     6

     MPI processes distributed on     1 nodes
     39882 MiB available memory on the printing compute node when the environment starts
 
     Reading input from marc_endA_m167.in
Warning: card &CELL ignored
Warning: card &FCP ignored
Warning: card &RISM ignored

     Current dimensions of program PWSCF are:
     Max number of different atomic species (ntypx) = 10
     Max number of k-points (npk) =  40000
     Max angular momentum in pseudopotentials (lmaxx) =  4
 
     Subspace diagonalization in iterative solution of the eigenvalue problem:
     a serial algorithm will be used

 
     G-vector sticks info
     --------------------
     sticks:   dense  smooth     PW     G-vecs:    dense   smooth      PW
     Sum        6591    6591   1755               553421   553421   76211
 
     Using Slab Decomposition
 


     bravais-lattice index     =            0
     lattice parameter (alat)  =      16.7921  a.u.
     unit-cell volume          =    8814.7061 (a.u.)^3
     number of atoms/cell      =           96
     number of atomic types    =            3
     number of electrons       =       881.00 (up: 441.33, down: 439.67)
     number of Kohn-Sham states=          530
     kinetic-energy cutoff     =      60.0000  Ry
     charge density cutoff     =     240.0000  Ry
     scf convergence threshold =      1.0E-08
     mixing beta               =       0.2000
     number of iterations used =           12  local-TF  mixing
     Exchange-correlation= PBE
                           (   1   4   3   4   0   0   0)

     GPU acceleration is ACTIVE.  1 visible GPUs per MPI rank


     GPU used by master process:

        Device Number: 0
        Device name: NVIDIA A100-SXM4-40GB
        Compute capability : 80
        Ratio of single to double precision performance  : 2
        Memory Clock Rate (KHz): 1215000
        Memory Bus Width (bits): 5120
        Peak Memory Bandwidth (GB/s): ******

     celldm(1)=  16.792106  celldm(2)=   0.000000  celldm(3)=   0.000000
     celldm(4)=   0.000000  celldm(5)=   0.000000  celldm(6)=   0.000000

     crystal axes: (cart. coord. in units of alat)
               a(1) = (   1.000000   0.000000   0.000000 )  
               a(2) = (   0.000000   1.221022   0.000000 )  
               a(3) = (   0.000000   0.000000   1.524646 )  

     reciprocal axes: (cart. coord. in units 2 pi/alat)
               b(1) = (  1.000000  0.000000  0.000000 )  
               b(2) = (  0.000000  0.818986  0.000000 )  
               b(3) = (  0.000000  0.000000  0.655890 )  


     PseudoPot. # 1 for Fe read from file:
     /opt/pp/oncv_pbe/Fe.upf
     MD5 check sum: a5f07f5dca5be6cacb81ceb54992e4ae
     Pseudo is Norm-conserving + core correction, Zval = 16.0
     Generated using ONCVPSP code by D. R. Hamann
     Using radial grid of 1426 points,  6 beta functions with: 
                l(1) =   0
                l(2) =   0
                l(3) =   1
                l(4) =   1
                l(5) =   2
                l(6) =   2

     PseudoPot. # 2 for S  read from file:
     /opt/pp/oncv_pbe/S.upf
     MD5 check sum: 6027e7704d67ae28863b2247926ce6f3
     Pseudo is Norm-conserving + core correction, Zval =  6.0
     Generated using ONCVPSP code by D. R. Hamann
     Using radial grid of 1146 points,  6 beta functions with: 
                l(1) =   0
                l(2) =   0
                l(3) =   1
                l(4) =   1
                l(5) =   2
                l(6) =   2

     PseudoPot. # 3 for H  read from file:
     /opt/pp/oncv_pbe/H.upf
     MD5 check sum: e96aa7e3e4a958db16958554ea960e2a
     Pseudo is Norm-conserving, Zval =  1.0
     Generated using ONCVPSP code by D. R. Hamann
     Using radial grid of 1166 points,  3 beta functions with: 
                l(1) =   0
                l(2) =   0
                l(3) =   1

     atomic species   valence    mass     pseudopotential
     Fe               16.00    55.84500     Fe( 1.00)
     S                 6.00    32.06000     S ( 1.00)
     H                 1.00     1.00800     H ( 1.00)

     Starting magnetic structure 
     atomic species   magnetization
     Fe              0.065
     S               0.000
     H               0.000

     No symmetry found


                                    s                        frac. trans.

      isym =  1     identity                                     

 cryst.   s( 1) = (     1          0          0      )
                  (     0          1          0      )
                  (     0          0          1      )

 cart.    s( 1) = (  1.0000000  0.0000000  0.0000000 )
                  (  0.0000000  1.0000000  0.0000000 )
                  (  0.0000000  0.0000000  1.0000000 )


   Cartesian axes

     site n.     atom                  positions (alat units)
         1        Fe     tau(   1) = (   0.0000791   0.0000617   0.0000006  )
         2        Fe     tau(   2) = (   0.2507120   0.3054380   0.1901415  )
         3        S      tau(   3) = (   0.1040521   0.2287345  -0.0000013  )
         4        S      tau(   4) = (   0.3966387   0.3820258  -0.0000019  )
         5        S      tau(   5) = (   0.1465616   0.5341068   0.1903682  )
         6        S      tau(   6) = (   0.3540329   0.0767779   0.1903529  )
         7        Fe     tau(   7) = (   0.0003612   0.0003098   0.3808954  )
         8        Fe     tau(   8) = (   0.2498161   0.3045343   0.5701662  )
         9        S      tau(   9) = (   0.1037037   0.2286932   0.3798395  )
        10        S      tau(  10) = (   0.3972819   0.3818758   0.3812266  )
        11        S      tau(  11) = (   0.1479395   0.5382306   0.5695289  )
        12        S      tau(  12) = (   0.3535631   0.0755918   0.5707970  )
        13        Fe     tau(  13) = (  -0.0000087   0.0002267   0.7623240  )
        14        Fe     tau(  14) = (   0.2498192   0.3045372   0.9544783  )
        15        S      tau(  15) = (   0.1012350   0.2283935   0.7623255  )
        16        S      tau(  16) = (   0.3892049   0.3642683   0.7623194  )
        17        S      tau(  17) = (   0.1479512   0.5382435   0.9551266  )
        18        S      tau(  18) = (   0.3535625   0.0755952   0.9538509  )
        19        Fe     tau(  19) = (   0.0003610   0.0003093   1.1437492  )
        20        Fe     tau(  20) = (   0.2507120   0.3054366   1.3345052  )
        21        S      tau(  21) = (   0.1037046   0.2286949   1.1448048  )
        22        S      tau(  22) = (   0.3972879   0.3818884   1.1434245  )
        23        S      tau(  23) = (   0.1465620   0.5341109   1.3342793  )
        24        S      tau(  24) = (   0.3540327   0.0767790   1.3342894  )
        25        Fe     tau(  25) = (  -0.0000643   0.6106964   0.0000037  )
        26        Fe     tau(  26) = (   0.2498922   0.9160836   0.1902035  )
        27        S      tau(  27) = (   0.1034766   0.8392972  -0.0000012  )
        28        S      tau(  28) = (   0.3962761   0.9924075  -0.0000015  )
        29        S      tau(  29) = (   0.1464562   1.1445461   0.1902272  )
        30        S      tau(  30) = (   0.3533612   0.6874197   0.1905600  )
        31        Fe     tau(  31) = (  -0.0001941   0.6109928   0.3792791  )
        32        Fe     tau(  32) = (   0.2479108   0.9166759   0.5698297  )
        33        S      tau(  33) = (   0.1018313   0.8405450   0.3801950  )
        34        S      tau(  34) = (   0.3956477   0.9925795   0.3807815  )
        35        S      tau(  35) = (   0.1461889   1.1443014   0.5719030  )
        36        S      tau(  36) = (   0.3462757   0.6880080   0.5678178  )
        37        Fe     tau(  37) = (   0.0001981   0.6110854   0.7623208  )
        38        Fe     tau(  38) = (   0.2479067   0.9166766   0.9548199  )
        39        S      tau(  39) = (   0.1024678   0.8401980   0.7623308  )
        40        S      tau(  40) = (   0.4007099   0.9905753   0.7623248  )
        41        S      tau(  41) = (   0.1461904   1.1442974   0.9527437  )
        42        S      tau(  42) = (   0.3462943   0.6879802   0.9567876  )
        43        Fe     tau(  43) = (  -0.0001960   0.6109920   1.1453653  )
        44        Fe     tau(  44) = (   0.2498888   0.9160837   1.3344464  )
        45        S      tau(  45) = (   0.1018353   0.8405402   1.1444470  )
        46        S      tau(  46) = (   0.3956466   0.9925749   1.1438640  )
        47        S      tau(  47) = (   0.1464568   1.1445454   1.3344157  )
        48        S      tau(  48) = (   0.3533652   0.6874168   1.3340759  )
        49        Fe     tau(  49) = (   0.5001529   0.0001424   0.0000000  )
        50        Fe     tau(  50) = (   0.7503449   0.3052557   0.1902456  )
        51        S      tau(  51) = (   0.6039130   0.2287168  -0.0000013  )
        52        S      tau(  52) = (   0.8965399   0.3820279  -0.0000011  )
        53        S      tau(  53) = (   0.6466454   0.5341347   0.1904422  )
        54        S      tau(  54) = (   0.8538122   0.0765651   0.1902624  )
        55        Fe     tau(  55) = (   0.5001850   0.0001856   0.3808757  )
        56        Fe     tau(  56) = (   0.7526614   0.3049428   0.5697743  )
        57        S      tau(  57) = (   0.6047315   0.2285341   0.3808818  )
        58        S      tau(  58) = (   0.8985477   0.3817061   0.3798377  )
        59        S      tau(  59) = (   0.6548254   0.5339500   0.5663504  )
        60        S      tau(  60) = (   0.8543644   0.0764494   0.5712513  )
        61        Fe     tau(  61) = (   0.5009343   0.0021044   0.7623230  )
        62        Fe     tau(  62) = (   0.7526655   0.3049381   0.9548765  )
        63        S      tau(  63) = (   0.6080716   0.2284208   0.7623286  )
        64        S      tau(  64) = (   0.8981583   0.3827233   0.7623305  )
        65        S      tau(  65) = (   0.6547987   0.5339634   0.9582568  )
        66        S      tau(  66) = (   0.8543639   0.0764511   0.9533957  )
        67        Fe     tau(  67) = (   0.5001850   0.0001852   1.1437694  )
        68        Fe     tau(  68) = (   0.7503479   0.3052556   1.3344043  )
        69        S      tau(  69) = (   0.6047326   0.2285371   1.1437649  )
        70        S      tau(  70) = (   0.8985436   0.3817103   1.1448055  )
        71        S      tau(  71) = (   0.6466405   0.5341378   1.3341938  )
        72        S      tau(  72) = (   0.8538114   0.0765656   1.3343806  )
        73        Fe     tau(  73) = (   0.4999971   0.6106563   0.0000043  )
        74        Fe     tau(  74) = (   0.7493083   0.9160199   0.1903065  )
        75        S      tau(  75) = (   0.6034058   0.8393700  -0.0000021  )
        76        S      tau(  76) = (   0.8959426   0.9924226  -0.0000014  )
        77        S      tau(  77) = (   0.6461891   1.1443997   0.1905045  )
        78        S      tau(  78) = (   0.8532542   0.6876144   0.1903900  )
        79        Fe     tau(  79) = (   0.5000840   0.6108373   0.3831508  )
        80        Fe     tau(  80) = (   0.7494835   0.9181001   0.5718799  )
        81        S      tau(  81) = (   0.6027476   0.8401910   0.3820464  )
        82        S      tau(  82) = (   0.8962857   0.9926260   0.3807065  )
        83        S      tau(  83) = (   0.6469186   1.1452005   0.5713411  )
        84        S      tau(  84) = (   0.8515956   0.6850648   0.5705773  )
        85        Fe     tau(  85) = (   0.7494813   0.9180947   0.9527648  )
        86        S      tau(  86) = (   0.6021841   0.8439106   0.7623105  )
        87        S      tau(  87) = (   0.8959376   0.9925654   0.7623259  )
        88        S      tau(  88) = (   0.6469198   1.1451952   0.9533069  )
        89        S      tau(  89) = (   0.8515808   0.6850493   0.9540744  )
        90        Fe     tau(  90) = (   0.5000839   0.6108374   1.1415423  )
        91        Fe     tau(  91) = (   0.7493085   0.9160213   1.3343390  )
        92        S      tau(  92) = (   0.6027402   0.8401770   1.1426038  )
        93        S      tau(  93) = (   0.8962835   0.9926242   1.1439361  )
        94        S      tau(  94) = (   0.6461891   1.1443985   1.3341377  )
        95        S      tau(  95) = (   0.8532535   0.6876108   1.3342574  )
        96        H      tau(  96) = (   0.4528395   0.5065796   0.7623299  )

   Crystallographic axes

     site n.     atom                  positions (cryst. coord.)
         1        Fe     tau(   1) = (  0.0000791  0.0000505  0.0000004  )
         2        Fe     tau(   2) = (  0.2507120  0.2501495  0.1247120  )
         3        S      tau(   3) = (  0.1040521  0.1873304 -0.0000008  )
         4        S      tau(   4) = (  0.3966387  0.3128739 -0.0000012  )
         5        S      tau(   5) = (  0.1465616  0.4374261  0.1248607  )
         6        S      tau(   6) = (  0.3540329  0.0628801  0.1248506  )
         7        Fe     tau(   7) = (  0.0003612  0.0002537  0.2498255  )
         8        Fe     tau(   8) = (  0.2498161  0.2494094  0.3739664  )
         9        S      tau(   9) = (  0.1037037  0.1872965  0.2491330  )
        10        S      tau(  10) = (  0.3972819  0.3127510  0.2500428  )
        11        S      tau(  11) = (  0.1479395  0.4408035  0.3735484  )
        12        S      tau(  12) = (  0.3535631  0.0619087  0.3743802  )
        13        Fe     tau(  13) = ( -0.0000087  0.0001856  0.5000008  )
        14        Fe     tau(  14) = (  0.2498192  0.2494117  0.6260330  )
        15        S      tau(  15) = (  0.1012350  0.1870511  0.5000018  )
        16        S      tau(  16) = (  0.3892049  0.2983307  0.4999978  )
        17        S      tau(  17) = (  0.1479512  0.4408140  0.6264581  )
        18        S      tau(  18) = (  0.3535625  0.0619114  0.6256214  )
        19        Fe     tau(  19) = (  0.0003610  0.0002533  0.7501739  )
        20        Fe     tau(  20) = (  0.2507120  0.2501483  0.8752889  )
        21        S      tau(  21) = (  0.1037046  0.1872980  0.7508662  )
        22        S      tau(  22) = (  0.3972879  0.3127613  0.7499609  )
        23        S      tau(  23) = (  0.1465620  0.4374294  0.8751407  )
        24        S      tau(  24) = (  0.3540327  0.0628810  0.8751473  )
        25        Fe     tau(  25) = ( -0.0000643  0.5001519  0.0000024  )
        26        Fe     tau(  26) = (  0.2498922  0.7502598  0.1247526  )
        27        S      tau(  27) = (  0.1034766  0.6873728 -0.0000008  )
        28        S      tau(  28) = (  0.3962761  0.8127680 -0.0000010  )
        29        S      tau(  29) = (  0.1464562  0.9373674  0.1247682  )
        30        S      tau(  30) = (  0.3533612  0.5629873  0.1249865  )
        31        Fe     tau(  31) = ( -0.0001941  0.5003947  0.2487654  )
        32        Fe     tau(  32) = (  0.2479108  0.7507449  0.3737457  )
        33        S      tau(  33) = (  0.1018313  0.6883947  0.2493662  )
        34        S      tau(  34) = (  0.3956477  0.8129089  0.2497509  )
        35        S      tau(  35) = (  0.1461889  0.9371670  0.3751056  )
        36        S      tau(  36) = (  0.3462757  0.5634691  0.3724261  )
        37        Fe     tau(  37) = (  0.0001981  0.5004705  0.4999987  )
        38        Fe     tau(  38) = (  0.2479067  0.7507455  0.6262570  )
        39        S      tau(  39) = (  0.1024678  0.6881106  0.5000052  )
        40        S      tau(  40) = (  0.4007099  0.8112675  0.5000013  )
        41        S      tau(  41) = (  0.1461904  0.9371637  0.6248952  )
        42        S      tau(  42) = (  0.3462943  0.5634463  0.6275476  )
        43        Fe     tau(  43) = ( -0.0001960  0.5003940  0.7512339  )
        44        Fe     tau(  44) = (  0.2498888  0.7502598  0.8752503  )
        45        S      tau(  45) = (  0.1018353  0.6883908  0.7506315  )
        46        S      tau(  46) = (  0.3956466  0.8129051  0.7502491  )
        47        S      tau(  47) = (  0.1464568  0.9373668  0.8752302  )
        48        S      tau(  48) = (  0.3533652  0.5629849  0.8750073  )
        49        Fe     tau(  49) = (  0.5001529  0.0001166  0.0000000  )
        50        Fe     tau(  50) = (  0.7503449  0.2500002  0.1247802  )
        51        S      tau(  51) = (  0.6039130  0.1873159 -0.0000008  )
        52        S      tau(  52) = (  0.8965399  0.3128755 -0.0000007  )
        53        S      tau(  53) = (  0.6466454  0.4374489  0.1249092  )
        54        S      tau(  54) = (  0.8538122  0.0627058  0.1247912  )
        55        Fe     tau(  55) = (  0.5001850  0.0001520  0.2498127  )
        56        Fe     tau(  56) = (  0.7526614  0.2497440  0.3737093  )
        57        S      tau(  57) = (  0.6047315  0.1871663  0.2498167  )
        58        S      tau(  58) = (  0.8985477  0.3126120  0.2491318  )
        59        S      tau(  59) = (  0.6548254  0.4372976  0.3714637  )
        60        S      tau(  60) = (  0.8543644  0.0626110  0.3746781  )
        61        Fe     tau(  61) = (  0.5009343  0.0017234  0.5000001  )
        62        Fe     tau(  62) = (  0.7526655  0.2497401  0.6262941  )
        63        S      tau(  63) = (  0.6080716  0.1870735  0.5000039  )
        64        S      tau(  64) = (  0.8981583  0.3134451  0.5000051  )
        65        S      tau(  65) = (  0.6547987  0.4373086  0.6285112  )
        66        S      tau(  66) = (  0.8543639  0.0626124  0.6253228  )
        67        Fe     tau(  67) = (  0.5001850  0.0001517  0.7501871  )
        68        Fe     tau(  68) = (  0.7503479  0.2500001  0.8752227  )
        69        S      tau(  69) = (  0.6047326  0.1871688  0.7501842  )
        70        S      tau(  70) = (  0.8985436  0.3126154  0.7508666  )
        71        S      tau(  71) = (  0.6466405  0.4374515  0.8750846  )
        72        S      tau(  72) = (  0.8538114  0.0627062  0.8752071  )
        73        Fe     tau(  73) = (  0.4999971  0.5001191  0.0000028  )
        74        Fe     tau(  74) = (  0.7493083  0.7502076  0.1248202  )
        75        S      tau(  75) = (  0.6034058  0.6874324 -0.0000014  )
        76        S      tau(  76) = (  0.8959426  0.8127804 -0.0000009  )
        77        S      tau(  77) = (  0.6461891  0.9372476  0.1249500  )
        78        S      tau(  78) = (  0.8532542  0.5631467  0.1248749  )
        79        Fe     tau(  79) = (  0.5000840  0.5002673  0.2513048  )
        80        Fe     tau(  80) = (  0.7494835  0.7519113  0.3750904  )
        81        S      tau(  81) = (  0.6027476  0.6881048  0.2505805  )
        82        S      tau(  82) = (  0.8962857  0.8129470  0.2497016  )
        83        S      tau(  83) = (  0.6469186  0.9379034  0.3747370  )
        84        S      tau(  84) = (  0.8515956  0.5610586  0.3742361  )
        85        Fe     tau(  85) = (  0.7494813  0.7519068  0.6249091  )
        86        S      tau(  86) = (  0.6021841  0.6911511  0.4999919  )
        87        S      tau(  87) = (  0.8959376  0.8128974  0.5000021  )
        88        S      tau(  88) = (  0.6469198  0.9378991  0.6252646  )
        89        S      tau(  89) = (  0.8515808  0.5610459  0.6257680  )
        90        Fe     tau(  90) = (  0.5000839  0.5002674  0.7487264  )
        91        Fe     tau(  91) = (  0.7493085  0.7502088  0.8751798  )
        92        S      tau(  92) = (  0.6027402  0.6880933  0.7494226  )
        93        S      tau(  93) = (  0.8962835  0.8129455  0.7502965  )
        94        S      tau(  94) = (  0.6461891  0.9372466  0.8750478  )
        95        S      tau(  95) = (  0.8532535  0.5631438  0.8751263  )
        96        H      tau(  96) = (  0.4528395  0.4148817  0.5000047  )

     number of k points=     8  Marzari-Vanderbilt smearing, width (Ry)=  0.0150
                       cart. coord. in units 2pi/alat
        k(    1) = (   0.0000000   0.0000000   0.0000000), wk =   0.0833333
        k(    2) = (   0.0000000   0.0000000   0.2186301), wk =   0.1666667
        k(    3) = (   0.0000000  -0.4094931   0.0000000), wk =   0.0833333
        k(    4) = (   0.0000000  -0.4094931   0.2186301), wk =   0.1666667
        k(    5) = (  -0.5000000   0.0000000   0.0000000), wk =   0.0833333
        k(    6) = (  -0.5000000   0.0000000   0.2186301), wk =   0.1666667
        k(    7) = (  -0.5000000  -0.4094931   0.0000000), wk =   0.0833333
        k(    8) = (  -0.5000000  -0.4094931   0.2186301), wk =   0.1666667

                       cryst. coord.
        k(    1) = (   0.0000000   0.0000000   0.0000000), wk =   0.0833333
        k(    2) = (   0.0000000   0.0000000   0.3333333), wk =   0.1666667
        k(    3) = (   0.0000000  -0.5000000   0.0000000), wk =   0.0833333
        k(    4) = (   0.0000000  -0.5000000   0.3333333), wk =   0.1666667
        k(    5) = (  -0.5000000   0.0000000   0.0000000), wk =   0.0833333
        k(    6) = (  -0.5000000   0.0000000   0.3333333), wk =   0.1666667
        k(    7) = (  -0.5000000  -0.5000000   0.0000000), wk =   0.0833333
        k(    8) = (  -0.5000000  -0.5000000   0.3333333), wk =   0.1666667

     Dense  grid:   553421 G-vectors     FFT dimensions: (  90, 108, 128)

     Dynamical RAM for                 wfc:     559.48 MB

     Dynamical RAM for     wfc (w. buffer):    9511.12 MB

     Dynamical RAM for           str. fact:      25.33 MB

     Dynamical RAM for           local pot:       0.00 MB

     Dynamical RAM for          nlocal pot:    1810.39 MB

     Dynamical RAM for                qrad:       3.73 MB

     Dynamical RAM for          rho,v,vnew:     107.62 MB

     Dynamical RAM for               rhoin:      35.87 MB

     Dynamical RAM for            rho*nmix:     405.34 MB

     Dynamical RAM for           G-vectors:      35.89 MB

     Dynamical RAM for          h,s,v(r/c):      51.43 MB

     Dynamical RAM for          <psi|beta>:      13.87 MB

     Dynamical RAM for                 psi:    1118.96 MB

     Dynamical RAM for                hpsi:    1118.96 MB

     Dynamical RAM for      wfcinit/wfcrot:    1125.39 MB

     Estimated static dynamical RAM per process >      11.35 GB

     Estimated max dynamical RAM per process >      13.99 GB
     Generating pointlists ...
     new r_m :   0.1010 (alat units)  1.6956 (a.u.) for type    1
     new r_m :   0.0643 (alat units)  1.0798 (a.u.) for type    2
     new r_m :   0.0643 (alat units)  1.0798 (a.u.) for type    3

     Initial potential from superposition of free atoms

     starting charge     880.9860, renormalised to     881.0000
     Starting wfcs are  567 randomized atomic wfcs

     total cpu time spent up to now is       32.7 secs

     per-process dynamical memory: 10383.1 Mb

     Self-consistent Calculation
[tb_dev] Currently allocated     3.22E+01 Mbytes, locked:    0 /   3
[tb_pin] Currently allocated     0.00E+00 Mbytes, locked:    0 /   0

     iteration #  1     ecut=    60.00 Ry     beta= 0.20
     Davidson diagonalization with overlap

---- Real-time Memory Report at c_bands before calling an iterative solver
         12237 MiB given to the printing process from OS
         10168 MiB allocation reported by mallinfo(arena+hblkhd)
         34061 MiB available memory on the node where the printing process lives
     GPU memory used/free/total (MiB): 26080 / 14361 / 40441
------------------
     ethr =  1.00E-02,  avg # of iterations =  2.0

     total cpu time spent up to now is       67.9 secs

     total energy              =   -9183.19074238 Ry
     estimated scf accuracy    <      16.59183966 Ry

     total magnetization       =     1.67 Bohr mag/cell
     absolute magnetization    =    13.13 Bohr mag/cell
[tb_dev] Currently allocated     0.00E+00 Mbytes, locked:    0 /   0
[tb_pin] Currently allocated     0.00E+00 Mbytes, locked:    0 /   0

     iteration #  2     ecut=    60.00 Ry     beta= 0.20
     Davidson diagonalization with overlap

---- Real-time Memory Report at c_bands before calling an iterative solver
         12313 MiB given to the printing process from OS
         10642 MiB allocation reported by mallinfo(arena+hblkhd)
         34150 MiB available memory on the node where the printing process lives
     GPU memory used/free/total (MiB): 28868 / 11573 / 40441
------------------
     ethr =  1.88E-03,  avg # of iterations =  2.0

     total cpu time spent up to now is       96.1 secs

     total energy              =   -9183.31936825 Ry
     estimated scf accuracy    <       5.88526748 Ry

     total magnetization       =     1.67 Bohr mag/cell
     absolute magnetization    =    12.64 Bohr mag/cell
[tb_dev] Currently allocated     0.00E+00 Mbytes, locked:    0 /   0
[tb_pin] Currently allocated     0.00E+00 Mbytes, locked:    0 /   0

     iteration #  3     ecut=    60.00 Ry     beta= 0.20
     Davidson diagonalization with overlap

---- Real-time Memory Report at c_bands before calling an iterative solver
         12396 MiB given to the printing process from OS
         10692 MiB allocation reported by mallinfo(arena+hblkhd)
         34158 MiB available memory on the node where the printing process lives
     GPU memory used/free/total (MiB): 28874 / 11567 / 40441
------------------
     ethr =  6.68E-04,  avg # of iterations =  2.0

     total cpu time spent up to now is      125.2 secs

     total energy              =   -9183.37361575 Ry
     estimated scf accuracy    <       1.61324652 Ry

     total magnetization       =     1.67 Bohr mag/cell
     absolute magnetization    =    10.48 Bohr mag/cell
[tb_dev] Currently allocated     0.00E+00 Mbytes, locked:    0 /   0
[tb_pin] Currently allocated     0.00E+00 Mbytes, locked:    0 /   0

     iteration #  4     ecut=    60.00 Ry     beta= 0.20
     Davidson diagonalization with overlap

---- Real-time Memory Report at c_bands before calling an iterative solver
         12485 MiB given to the printing process from OS
         10743 MiB allocation reported by mallinfo(arena+hblkhd)
         33948 MiB available memory on the node where the printing process lives
     GPU memory used/free/total (MiB): 28874 / 11567 / 40441
------------------
     ethr =  1.83E-04,  avg # of iterations =  3.9

     total cpu time spent up to now is      178.5 secs

     total energy              =   -9183.46907916 Ry
     estimated scf accuracy    <       0.24089023 Ry

     total magnetization       =     1.67 Bohr mag/cell
     absolute magnetization    =     6.85 Bohr mag/cell
[tb_dev] Currently allocated     0.00E+00 Mbytes, locked:    0 /   0
[tb_pin] Currently allocated     0.00E+00 Mbytes, locked:    0 /   0

     iteration #  5     ecut=    60.00 Ry     beta= 0.20
     Davidson diagonalization with overlap

---- Real-time Memory Report at c_bands before calling an iterative solver
         12552 MiB given to the printing process from OS
         10777 MiB allocation reported by mallinfo(arena+hblkhd)
         33850 MiB available memory on the node where the printing process lives
     GPU memory used/free/total (MiB): 28874 / 11567 / 40441
------------------
     ethr =  2.73E-05,  avg # of iterations =  9.1
     Spin Component #  1
     Minimization algorithm failed to find Fermi energy: reverting to bisection
     Possible cause: smearing is larger than the electronic band-gap.

     total cpu time spent up to now is      308.0 secs

     total energy              =   -9183.50545150 Ry
     estimated scf accuracy    <       0.04898706 Ry

     total magnetization       =     1.67 Bohr mag/cell
     absolute magnetization    =     4.99 Bohr mag/cell
[tb_dev] Currently allocated     0.00E+00 Mbytes, locked:    0 /   0
[tb_pin] Currently allocated     0.00E+00 Mbytes, locked:    0 /   0

     iteration #  6     ecut=    60.00 Ry     beta= 0.20
     Davidson diagonalization with overlap

---- Real-time Memory Report at c_bands before calling an iterative solver
         12669 MiB given to the printing process from OS
         10845 MiB allocation reported by mallinfo(arena+hblkhd)
         33554 MiB available memory on the node where the printing process lives
     GPU memory used/free/total (MiB): 28876 / 11565 / 40441
------------------
     ethr =  5.56E-06,  avg # of iterations =  2.0
     Spin Component #  1
     Minimization algorithm failed to find Fermi energy: reverting to bisection
     Possible cause: smearing is larger than the electronic band-gap.

     total cpu time spent up to now is      341.6 secs

     total energy              =   -9183.50748187 Ry
     estimated scf accuracy    <       0.02862720 Ry

     total magnetization       =     1.67 Bohr mag/cell
     absolute magnetization    =     4.68 Bohr mag/cell
[tb_dev] Currently allocated     0.00E+00 Mbytes, locked:    0 /   0
[tb_pin] Currently allocated     0.00E+00 Mbytes, locked:    0 /   0

     iteration #  7     ecut=    60.00 Ry     beta= 0.20
     Davidson diagonalization with overlap

---- Real-time Memory Report at c_bands before calling an iterative solver
         12739 MiB given to the printing process from OS
         10878 MiB allocation reported by mallinfo(arena+hblkhd)
         33529 MiB available memory on the node where the printing process lives
     GPU memory used/free/total (MiB): 28876 / 11565 / 40441
------------------
     ethr =  3.25E-06,  avg # of iterations =  1.8
     Spin Component #  1
     Minimization algorithm failed to find Fermi energy: reverting to bisection
     Possible cause: smearing is larger than the electronic band-gap.

     total cpu time spent up to now is      373.0 secs

     total energy              =   -9183.50978992 Ry
     estimated scf accuracy    <       0.01000563 Ry

     total magnetization       =     1.67 Bohr mag/cell
     absolute magnetization    =     3.75 Bohr mag/cell
[tb_dev] Currently allocated     0.00E+00 Mbytes, locked:    0 /   0
[tb_pin] Currently allocated     0.00E+00 Mbytes, locked:    0 /   0

     iteration #  8     ecut=    60.00 Ry     beta= 0.20
     Davidson diagonalization with overlap

---- Real-time Memory Report at c_bands before calling an iterative solver
         12773 MiB given to the printing process from OS
         10912 MiB allocation reported by mallinfo(arena+hblkhd)
         33291 MiB available memory on the node where the printing process lives
     GPU memory used/free/total (MiB): 28876 / 11565 / 40441
------------------
     ethr =  1.14E-06,  avg # of iterations =  3.0
     Spin Component #  1
     Minimization algorithm failed to find Fermi energy: reverting to bisection
     Possible cause: smearing is larger than the electronic band-gap.

     total cpu time spent up to now is      404.2 secs

     total energy              =   -9183.51134058 Ry
     estimated scf accuracy    <       0.00124096 Ry

     total magnetization       =     1.67 Bohr mag/cell
     absolute magnetization    =     2.95 Bohr mag/cell
[tb_dev] Currently allocated     0.00E+00 Mbytes, locked:    0 /   0
[tb_pin] Currently allocated     0.00E+00 Mbytes, locked:    0 /   0

     iteration #  9     ecut=    60.00 Ry     beta= 0.20
     Davidson diagonalization with overlap

---- Real-time Memory Report at c_bands before calling an iterative solver
         12840 MiB given to the printing process from OS
         10946 MiB allocation reported by mallinfo(arena+hblkhd)
         33371 MiB available memory on the node where the printing process lives
     GPU memory used/free/total (MiB): 28876 / 11565 / 40441
------------------
     ethr =  1.41E-07,  avg # of iterations =  4.9
     Spin Component #  1
     Minimization algorithm failed to find Fermi energy: reverting to bisection
     Possible cause: smearing is larger than the electronic band-gap.

     total cpu time spent up to now is      481.1 secs

     total energy              =   -9183.51177104 Ry
     estimated scf accuracy    <       0.00040749 Ry

     total magnetization       =     1.67 Bohr mag/cell
     absolute magnetization    =     2.57 Bohr mag/cell
[tb_dev] Currently allocated     0.00E+00 Mbytes, locked:    0 /   0
[tb_pin] Currently allocated     0.00E+00 Mbytes, locked:    0 /   0

     iteration # 10     ecut=    60.00 Ry     beta= 0.20
     Davidson diagonalization with overlap

---- Real-time Memory Report at c_bands before calling an iterative solver
         12908 MiB given to the printing process from OS
         10980 MiB allocation reported by mallinfo(arena+hblkhd)
         33402 MiB available memory on the node where the printing process lives
     GPU memory used/free/total (MiB): 28876 / 11565 / 40441
------------------
     ethr =  4.63E-08,  avg # of iterations =  2.0
     Spin Component #  1
     Minimization algorithm failed to find Fermi energy: reverting to bisection
     Possible cause: smearing is larger than the electronic band-gap.

     total cpu time spent up to now is      558.1 secs

     total energy              =   -9183.51182046 Ry
     estimated scf accuracy    <       0.00027035 Ry

     total magnetization       =     1.67 Bohr mag/cell
     absolute magnetization    =     2.50 Bohr mag/cell
[tb_dev] Currently allocated     0.00E+00 Mbytes, locked:    0 /   0
[tb_pin] Currently allocated     0.00E+00 Mbytes, locked:    0 /   0

     iteration # 11     ecut=    60.00 Ry     beta= 0.20
     Davidson diagonalization with overlap

---- Real-time Memory Report at c_bands before calling an iterative solver
         12975 MiB given to the printing process from OS
         11014 MiB allocation reported by mallinfo(arena+hblkhd)
         33481 MiB available memory on the node where the printing process lives
     GPU memory used/free/total (MiB): 28876 / 11565 / 40441
------------------
     ethr =  3.07E-08,  avg # of iterations =  3.1

     total cpu time spent up to now is      622.9 secs

     total energy              =   -9183.51191502 Ry
     estimated scf accuracy    <       0.00006052 Ry

     total magnetization       =     1.67 Bohr mag/cell
     absolute magnetization    =     2.31 Bohr mag/cell
[tb_dev] Currently allocated     0.00E+00 Mbytes, locked:    0 /   0
[tb_pin] Currently allocated     0.00E+00 Mbytes, locked:    0 /   0

     iteration # 12     ecut=    60.00 Ry     beta= 0.20
     Davidson diagonalization with overlap

---- Real-time Memory Report at c_bands before calling an iterative solver
         13042 MiB given to the printing process from OS
         11047 MiB allocation reported by mallinfo(arena+hblkhd)
         32979 MiB available memory on the node where the printing process lives
     GPU memory used/free/total (MiB): 28876 / 11565 / 40441
------------------
     ethr =  6.87E-09,  avg # of iterations =  3.1

     total cpu time spent up to now is      655.5 secs

     total energy              =   -9183.50785257 Ry
     estimated scf accuracy    <       0.00299693 Ry

     total magnetization       =     1.67 Bohr mag/cell
     absolute magnetization    =     2.36 Bohr mag/cell
[tb_dev] Currently allocated     0.00E+00 Mbytes, locked:    0 /   0
[tb_pin] Currently allocated     0.00E+00 Mbytes, locked:    0 /   0

     iteration # 13     ecut=    60.00 Ry     beta= 0.20
     Davidson diagonalization with overlap

---- Real-time Memory Report at c_bands before calling an iterative solver
         13110 MiB given to the printing process from OS
         11081 MiB allocation reported by mallinfo(arena+hblkhd)
         32942 MiB available memory on the node where the printing process lives
     GPU memory used/free/total (MiB): 28876 / 11565 / 40441
------------------
     ethr =  6.87E-09,  avg # of iterations =  3.3
     Spin Component #  1
     Minimization algorithm failed to find Fermi energy: reverting to bisection
     Possible cause: smearing is larger than the electronic band-gap.

     total cpu time spent up to now is      685.7 secs

     total energy              =   -9183.51192403 Ry
     estimated scf accuracy    <       0.00002809 Ry

     total magnetization       =     1.67 Bohr mag/cell
     absolute magnetization    =     2.29 Bohr mag/cell
[tb_dev] Currently allocated     0.00E+00 Mbytes, locked:    0 /   0
[tb_pin] Currently allocated     0.00E+00 Mbytes, locked:    0 /   0

     iteration # 14     ecut=    60.00 Ry     beta= 0.20
     Davidson diagonalization with overlap

---- Real-time Memory Report at c_bands before calling an iterative solver
         13177 MiB given to the printing process from OS
         11115 MiB allocation reported by mallinfo(arena+hblkhd)
         33161 MiB available memory on the node where the printing process lives
     GPU memory used/free/total (MiB): 28876 / 11565 / 40441
------------------
     ethr =  3.19E-09,  avg # of iterations =  2.3
     Spin Component #  1
     Minimization algorithm failed to find Fermi energy: reverting to bisection
     Possible cause: smearing is larger than the electronic band-gap.

     total cpu time spent up to now is      718.2 secs

     total energy              =   -9183.51192822 Ry
     estimated scf accuracy    <       0.00001530 Ry

     total magnetization       =     1.67 Bohr mag/cell
     absolute magnetization    =     2.27 Bohr mag/cell
[tb_dev] Currently allocated     0.00E+00 Mbytes, locked:    0 /   0
[tb_pin] Currently allocated     0.00E+00 Mbytes, locked:    0 /   0

     iteration # 15     ecut=    60.00 Ry     beta= 0.20
     Davidson diagonalization with overlap

---- Real-time Memory Report at c_bands before calling an iterative solver
         13177 MiB given to the printing process from OS
         11115 MiB allocation reported by mallinfo(arena+hblkhd)
         32190 MiB available memory on the node where the printing process lives
     GPU memory used/free/total (MiB): 28876 / 11565 / 40441
------------------
     ethr =  1.74E-09,  avg # of iterations =  4.4

     total cpu time spent up to now is      785.0 secs

     total energy              =   -9183.50791233 Ry
     estimated scf accuracy    <       0.00278557 Ry

     total magnetization       =     1.67 Bohr mag/cell
     absolute magnetization    =     2.35 Bohr mag/cell
[tb_dev] Currently allocated     0.00E+00 Mbytes, locked:    0 /   0
[tb_pin] Currently allocated     0.00E+00 Mbytes, locked:    0 /   0

     iteration # 16     ecut=    60.00 Ry     beta= 0.20
     Davidson diagonalization with overlap

---- Real-time Memory Report at c_bands before calling an iterative solver
         13177 MiB given to the printing process from OS
         11115 MiB allocation reported by mallinfo(arena+hblkhd)
         33026 MiB available memory on the node where the printing process lives
     GPU memory used/free/total (MiB): 28876 / 11565 / 40441
------------------
     ethr =  1.74E-09,  avg # of iterations =  2.7

     total cpu time spent up to now is      866.0 secs

     total energy              =   -9183.51193208 Ry
     estimated scf accuracy    <       0.00001752 Ry

     total magnetization       =     1.67 Bohr mag/cell
     absolute magnetization    =     2.26 Bohr mag/cell
[tb_dev] Currently allocated     0.00E+00 Mbytes, locked:    0 /   0
[tb_pin] Currently allocated     0.00E+00 Mbytes, locked:    0 /   0

     iteration # 17     ecut=    60.00 Ry     beta= 0.20
     Davidson diagonalization with overlap

---- Real-time Memory Report at c_bands before calling an iterative solver
         13177 MiB given to the printing process from OS
         11115 MiB allocation reported by mallinfo(arena+hblkhd)
         32915 MiB available memory on the node where the printing process lives
     GPU memory used/free/total (MiB): 28876 / 11565 / 40441
------------------
     ethr =  1.74E-09,  avg # of iterations =  1.0

     total cpu time spent up to now is      914.9 secs

     total energy              =   -9183.50794040 Ry
     estimated scf accuracy    <       0.00277640 Ry

     total magnetization       =     1.67 Bohr mag/cell
     absolute magnetization    =     2.35 Bohr mag/cell
[tb_dev] Currently allocated     0.00E+00 Mbytes, locked:    0 /   0
[tb_pin] Currently allocated     0.00E+00 Mbytes, locked:    0 /   0

     iteration # 18     ecut=    60.00 Ry     beta= 0.20
     Davidson diagonalization with overlap

---- Real-time Memory Report at c_bands before calling an iterative solver
         13177 MiB given to the printing process from OS
         11115 MiB allocation reported by mallinfo(arena+hblkhd)
         33051 MiB available memory on the node where the printing process lives
     GPU memory used/free/total (MiB): 28876 / 11565 / 40441
------------------
     ethr =  1.74E-09,  avg # of iterations =  2.2
     Spin Component #  1
     Minimization algorithm failed to find Fermi energy: reverting to bisection
     Possible cause: smearing is larger than the electronic band-gap.

     total cpu time spent up to now is      946.3 secs

     total energy              =   -9183.51193182 Ry
     estimated scf accuracy    <       0.00001744 Ry

     total magnetization       =     1.67 Bohr mag/cell
     absolute magnetization    =     2.26 Bohr mag/cell
[tb_dev] Currently allocated     0.00E+00 Mbytes, locked:    0 /   0
[tb_pin] Currently allocated     0.00E+00 Mbytes, locked:    0 /   0

     iteration # 19     ecut=    60.00 Ry     beta= 0.20
     Davidson diagonalization with overlap

---- Real-time Memory Report at c_bands before calling an iterative solver
         13177 MiB given to the printing process from OS
         11115 MiB allocation reported by mallinfo(arena+hblkhd)
         32905 MiB available memory on the node where the printing process lives
     GPU memory used/free/total (MiB): 28876 / 11565 / 40441
------------------
     ethr =  1.74E-09,  avg # of iterations =  1.5

     total cpu time spent up to now is      973.9 secs

     total energy              =   -9183.51193183 Ry
     estimated scf accuracy    <       0.00002019 Ry

     total magnetization       =     1.67 Bohr mag/cell
     absolute magnetization    =     2.26 Bohr mag/cell
[tb_dev] Currently allocated     0.00E+00 Mbytes, locked:    0 /   0
[tb_pin] Currently allocated     0.00E+00 Mbytes, locked:    0 /   0

     iteration # 20     ecut=    60.00 Ry     beta= 0.20
     Davidson diagonalization with overlap

---- Real-time Memory Report at c_bands before calling an iterative solver
         13177 MiB given to the printing process from OS
         11115 MiB allocation reported by mallinfo(arena+hblkhd)
         32827 MiB available memory on the node where the printing process lives
     GPU memory used/free/total (MiB): 28876 / 11565 / 40441
------------------
     ethr =  1.74E-09,  avg # of iterations =  1.3

     total cpu time spent up to now is     1002.8 secs

     total energy              =   -9183.51193079 Ry
     estimated scf accuracy    <       0.00002067 Ry

     total magnetization       =     1.67 Bohr mag/cell
     absolute magnetization    =     2.26 Bohr mag/cell
[tb_dev] Currently allocated     0.00E+00 Mbytes, locked:    0 /   0
[tb_pin] Currently allocated     0.00E+00 Mbytes, locked:    0 /   0

     iteration # 21     ecut=    60.00 Ry     beta= 0.20
     Davidson diagonalization with overlap

---- Real-time Memory Report at c_bands before calling an iterative solver
         13177 MiB given to the printing process from OS
         11115 MiB allocation reported by mallinfo(arena+hblkhd)
         33003 MiB available memory on the node where the printing process lives
     GPU memory used/free/total (MiB): 28876 / 11565 / 40441
------------------
     ethr =  1.74E-09,  avg # of iterations =  2.0
     Spin Component #  1
     Minimization algorithm failed to find Fermi energy: reverting to bisection
     Possible cause: smearing is larger than the electronic band-gap.

     total cpu time spent up to now is     1059.1 secs

     total energy              =   -9183.51193145 Ry
     estimated scf accuracy    <       0.00001950 Ry

     total magnetization       =     1.67 Bohr mag/cell
     absolute magnetization    =     2.27 Bohr mag/cell
[tb_dev] Currently allocated     0.00E+00 Mbytes, locked:    0 /   0
[tb_pin] Currently allocated     0.00E+00 Mbytes, locked:    0 /   0

     iteration # 22     ecut=    60.00 Ry     beta= 0.20
     Davidson diagonalization with overlap

---- Real-time Memory Report at c_bands before calling an iterative solver
         13177 MiB given to the printing process from OS
         11115 MiB allocation reported by mallinfo(arena+hblkhd)
         32771 MiB available memory on the node where the printing process lives
     GPU memory used/free/total (MiB): 28896 / 11545 / 40441
------------------
     ethr =  1.74E-09,  avg # of iterations =  1.0

     total cpu time spent up to now is     1131.5 secs

     total energy              =   -9183.50797039 Ry
     estimated scf accuracy    <       0.00264641 Ry

     total magnetization       =     1.67 Bohr mag/cell
     absolute magnetization    =     2.37 Bohr mag/cell
[tb_dev] Currently allocated     0.00E+00 Mbytes, locked:    0 /   0
[tb_pin] Currently allocated     0.00E+00 Mbytes, locked:    0 /   0

     iteration # 23     ecut=    60.00 Ry     beta= 0.20
     Davidson diagonalization with overlap

---- Real-time Memory Report at c_bands before calling an iterative solver
         13177 MiB given to the printing process from OS
         11115 MiB allocation reported by mallinfo(arena+hblkhd)
         31843 MiB available memory on the node where the printing process lives
     GPU memory used/free/total (MiB): 28896 / 11545 / 40441
------------------
     ethr =  1.74E-09,  avg # of iterations =  1.9

     total cpu time spent up to now is     1204.7 secs

     total energy              =   -9183.50797258 Ry
     estimated scf accuracy    <       0.00264336 Ry

     total magnetization       =     1.67 Bohr mag/cell
     absolute magnetization    =     2.37 Bohr mag/cell
[tb_dev] Currently allocated     0.00E+00 Mbytes, locked:    0 /   0
[tb_pin] Currently allocated     0.00E+00 Mbytes, locked:    0 /   0

     iteration # 24     ecut=    60.00 Ry     beta= 0.20
     Davidson diagonalization with overlap

---- Real-time Memory Report at c_bands before calling an iterative solver
         13177 MiB given to the printing process from OS
         11115 MiB allocation reported by mallinfo(arena+hblkhd)
         32656 MiB available memory on the node where the printing process lives
     GPU memory used/free/total (MiB): 28916 / 11525 / 40441
------------------
     ethr =  1.74E-09,  avg # of iterations =  1.0

     total cpu time spent up to now is     1235.9 secs

     total energy              =   -9183.51677354 Ry
     estimated scf accuracy    <       0.00202042 Ry

     total magnetization       =     1.67 Bohr mag/cell
     absolute magnetization    =     2.39 Bohr mag/cell
[tb_dev] Currently allocated     0.00E+00 Mbytes, locked:    0 /   0
[tb_pin] Currently allocated     0.00E+00 Mbytes, locked:    0 /   0

     iteration # 25     ecut=    60.00 Ry     beta= 0.20
     Davidson diagonalization with overlap

---- Real-time Memory Report at c_bands before calling an iterative solver
         13177 MiB given to the printing process from OS
         11115 MiB allocation reported by mallinfo(arena+hblkhd)
         32258 MiB available memory on the node where the printing process lives
     GPU memory used/free/total (MiB): 28916 / 11525 / 40441
------------------
     ethr =  1.74E-09,  avg # of iterations =  1.0

     total cpu time spent up to now is     1265.6 secs

     total energy              =   -9183.50797283 Ry
     estimated scf accuracy    <       0.00262528 Ry

     total magnetization       =     1.67 Bohr mag/cell
     absolute magnetization    =     2.37 Bohr mag/cell
[tb_dev] Currently allocated     0.00E+00 Mbytes, locked:    0 /   0
[tb_pin] Currently allocated     0.00E+00 Mbytes, locked:    0 /   0

     iteration # 26     ecut=    60.00 Ry     beta= 0.20
     Davidson diagonalization with overlap

---- Real-time Memory Report at c_bands before calling an iterative solver
         13177 MiB given to the printing process from OS
         11115 MiB allocation reported by mallinfo(arena+hblkhd)
         32504 MiB available memory on the node where the printing process lives
     GPU memory used/free/total (MiB): 28916 / 11525 / 40441
------------------
     ethr =  1.74E-09,  avg # of iterations =  1.0

     total cpu time spent up to now is     1292.2 secs

     total energy              =   -9183.50797390 Ry
     estimated scf accuracy    <       0.00262347 Ry

     total magnetization       =     1.67 Bohr mag/cell
     absolute magnetization    =     2.37 Bohr mag/cell
[tb_dev] Currently allocated     0.00E+00 Mbytes, locked:    0 /   0
[tb_pin] Currently allocated     0.00E+00 Mbytes, locked:    0 /   0

     iteration # 27     ecut=    60.00 Ry     beta= 0.20
     Davidson diagonalization with overlap

---- Real-time Memory Report at c_bands before calling an iterative solver
         13177 MiB given to the printing process from OS
         11115 MiB allocation reported by mallinfo(arena+hblkhd)
         32417 MiB available memory on the node where the printing process lives
     GPU memory used/free/total (MiB): 28916 / 11525 / 40441
------------------
     ethr =  1.74E-09,  avg # of iterations =  1.0

     total cpu time spent up to now is     1323.0 secs

     total energy              =   -9183.50797264 Ry
     estimated scf accuracy    <       0.00261715 Ry

     total magnetization       =     1.67 Bohr mag/cell
     absolute magnetization    =     2.37 Bohr mag/cell
[tb_dev] Currently allocated     0.00E+00 Mbytes, locked:    0 /   0
[tb_pin] Currently allocated     0.00E+00 Mbytes, locked:    0 /   0

     iteration # 28     ecut=    60.00 Ry     beta= 0.20
     Davidson diagonalization with overlap

---- Real-time Memory Report at c_bands before calling an iterative solver
         13177 MiB given to the printing process from OS
         11115 MiB allocation reported by mallinfo(arena+hblkhd)
         32537 MiB available memory on the node where the printing process lives
     GPU memory used/free/total (MiB): 28916 / 11525 / 40441
------------------
     ethr =  1.74E-09,  avg # of iterations =  1.0

     total cpu time spent up to now is     1382.4 secs

     total energy              =   -9183.50797298 Ry
     estimated scf accuracy    <       0.00262286 Ry

     total magnetization       =     1.67 Bohr mag/cell
     absolute magnetization    =     2.37 Bohr mag/cell
[tb_dev] Currently allocated     0.00E+00 Mbytes, locked:    0 /   0
[tb_pin] Currently allocated     0.00E+00 Mbytes, locked:    0 /   0

     iteration # 29     ecut=    60.00 Ry     beta= 0.20
     Davidson diagonalization with overlap

---- Real-time Memory Report at c_bands before calling an iterative solver
         13177 MiB given to the printing process from OS
         11115 MiB allocation reported by mallinfo(arena+hblkhd)
         33018 MiB available memory on the node where the printing process lives
     GPU memory used/free/total (MiB): 32942 / 7499 / 40441
------------------
     ethr =  1.74E-09,  avg # of iterations =  1.0

     total cpu time spent up to now is     1458.4 secs

     total energy              =   -9183.50797301 Ry
     estimated scf accuracy    <       0.00261975 Ry

     total magnetization       =     1.67 Bohr mag/cell
     absolute magnetization    =     2.37 Bohr mag/cell
[tb_dev] Currently allocated     0.00E+00 Mbytes, locked:    0 /   0
[tb_pin] Currently allocated     0.00E+00 Mbytes, locked:    0 /   0

     iteration # 30     ecut=    60.00 Ry     beta= 0.20
     Davidson diagonalization with overlap

---- Real-time Memory Report at c_bands before calling an iterative solver
         13177 MiB given to the printing process from OS
         11115 MiB allocation reported by mallinfo(arena+hblkhd)
         32746 MiB available memory on the node where the printing process lives
     GPU memory used/free/total (MiB): 32942 / 7499 / 40441
------------------
     ethr =  1.74E-09,  avg # of iterations =  1.0

     total cpu time spent up to now is     1533.3 secs

     total energy              =   -9183.50797271 Ry
     estimated scf accuracy    <       0.00262286 Ry

     total magnetization       =     1.67 Bohr mag/cell
     absolute magnetization    =     2.37 Bohr mag/cell
[tb_dev] Currently allocated     0.00E+00 Mbytes, locked:    0 /   0
[tb_pin] Currently allocated     0.00E+00 Mbytes, locked:    0 /   0

     iteration # 31     ecut=    60.00 Ry     beta= 0.20
     Davidson diagonalization with overlap

---- Real-time Memory Report at c_bands before calling an iterative solver
         13177 MiB given to the printing process from OS
         11115 MiB allocation reported by mallinfo(arena+hblkhd)
         32594 MiB available memory on the node where the printing process lives
     GPU memory used/free/total (MiB): 32942 / 7499 / 40441
------------------
     ethr =  1.74E-09,  avg # of iterations =  1.0

     total cpu time spent up to now is     1608.3 secs

     total energy              =   -9183.51193127 Ry
     estimated scf accuracy    <       0.00002018 Ry

     total magnetization       =     1.67 Bohr mag/cell
     absolute magnetization    =     2.27 Bohr mag/cell
[tb_dev] Currently allocated     0.00E+00 Mbytes, locked:    0 /   0
[tb_pin] Currently allocated     0.00E+00 Mbytes, locked:    0 /   0

     iteration # 32     ecut=    60.00 Ry     beta= 0.20
     Davidson diagonalization with overlap

---- Real-time Memory Report at c_bands before calling an iterative solver
         13177 MiB given to the printing process from OS
         11115 MiB allocation reported by mallinfo(arena+hblkhd)
         38908 MiB available memory on the node where the printing process lives
     GPU memory used/free/total (MiB): 32942 / 7499 / 40441
------------------
     ethr =  1.74E-09,  avg # of iterations =  1.0

     total cpu time spent up to now is     1689.8 secs

     total energy              =   -9183.51193123 Ry
     estimated scf accuracy    <       0.00002065 Ry

     total magnetization       =     1.67 Bohr mag/cell
     absolute magnetization    =     2.27 Bohr mag/cell
[tb_dev] Currently allocated     0.00E+00 Mbytes, locked:    0 /   0
[tb_pin] Currently allocated     0.00E+00 Mbytes, locked:    0 /   0

     iteration # 33     ecut=    60.00 Ry     beta= 0.20
     Davidson diagonalization with overlap

---- Real-time Memory Report at c_bands before calling an iterative solver
         13177 MiB given to the printing process from OS
         11115 MiB allocation reported by mallinfo(arena+hblkhd)
         39572 MiB available memory on the node where the printing process lives
     GPU memory used/free/total (MiB): 32942 / 7499 / 40441
------------------
     ethr =  1.74E-09,  avg # of iterations =  1.0

     total cpu time spent up to now is     1764.4 secs

     total energy              =   -9183.51193124 Ry
     estimated scf accuracy    <       0.00002105 Ry

     total magnetization       =     1.67 Bohr mag/cell
     absolute magnetization    =     2.27 Bohr mag/cell
[tb_dev] Currently allocated     0.00E+00 Mbytes, locked:    0 /   0
[tb_pin] Currently allocated     0.00E+00 Mbytes, locked:    0 /   0

     iteration # 34     ecut=    60.00 Ry     beta= 0.20
     Davidson diagonalization with overlap

---- Real-time Memory Report at c_bands before calling an iterative solver
         13177 MiB given to the printing process from OS
         11115 MiB allocation reported by mallinfo(arena+hblkhd)
         39462 MiB available memory on the node where the printing process lives
     GPU memory used/free/total (MiB): 32942 / 7499 / 40441
------------------
     ethr =  1.74E-09,  avg # of iterations =  1.0

     total cpu time spent up to now is     1844.0 secs

     total energy              =   -9183.51677430 Ry
     estimated scf accuracy    <       0.00201339 Ry

     total magnetization       =     1.67 Bohr mag/cell
     absolute magnetization    =     2.39 Bohr mag/cell
[tb_dev] Currently allocated     0.00E+00 Mbytes, locked:    0 /   0
[tb_pin] Currently allocated     0.00E+00 Mbytes, locked:    0 /   0

     iteration # 35     ecut=    60.00 Ry     beta= 0.20
     Davidson diagonalization with overlap

---- Real-time Memory Report at c_bands before calling an iterative solver
         13177 MiB given to the printing process from OS
         11115 MiB allocation reported by mallinfo(arena+hblkhd)
         39261 MiB available memory on the node where the printing process lives
     GPU memory used/free/total (MiB): 32942 / 7499 / 40441
------------------
     ethr =  1.74E-09,  avg # of iterations =  1.0

     total cpu time spent up to now is     1920.7 secs

     total energy              =   -9183.51677425 Ry
     estimated scf accuracy    <       0.00201204 Ry

     total magnetization       =     1.67 Bohr mag/cell
     absolute magnetization    =     2.39 Bohr mag/cell
[tb_dev] Currently allocated     0.00E+00 Mbytes, locked:    0 /   0
[tb_pin] Currently allocated     0.00E+00 Mbytes, locked:    0 /   0

     iteration # 36     ecut=    60.00 Ry     beta= 0.20
     Davidson diagonalization with overlap

---- Real-time Memory Report at c_bands before calling an iterative solver
         13177 MiB given to the printing process from OS
         11115 MiB allocation reported by mallinfo(arena+hblkhd)
         39489 MiB available memory on the node where the printing process lives
     GPU memory used/free/total (MiB): 32942 / 7499 / 40441
------------------
     ethr =  1.74E-09,  avg # of iterations =  1.0

     total cpu time spent up to now is     1997.8 secs

     total energy              =   -9183.51677435 Ry
     estimated scf accuracy    <       0.00201260 Ry

     total magnetization       =     1.67 Bohr mag/cell
     absolute magnetization    =     2.39 Bohr mag/cell
[tb_dev] Currently allocated     0.00E+00 Mbytes, locked:    0 /   0
[tb_pin] Currently allocated     0.00E+00 Mbytes, locked:    0 /   0

     iteration # 37     ecut=    60.00 Ry     beta= 0.20
     Davidson diagonalization with overlap

---- Real-time Memory Report at c_bands before calling an iterative solver
         13177 MiB given to the printing process from OS
         11115 MiB allocation reported by mallinfo(arena+hblkhd)
         38509 MiB available memory on the node where the printing process lives
     GPU memory used/free/total (MiB): 32942 / 7499 / 40441
------------------
     ethr =  1.74E-09,  avg # of iterations =  1.0

     total cpu time spent up to now is     2069.5 secs

     total energy              =   -9183.51677432 Ry
     estimated scf accuracy    <       0.00201186 Ry

     total magnetization       =     1.67 Bohr mag/cell
     absolute magnetization    =     2.39 Bohr mag/cell
[tb_dev] Currently allocated     0.00E+00 Mbytes, locked:    0 /   0
[tb_pin] Currently allocated     0.00E+00 Mbytes, locked:    0 /   0

     iteration # 38     ecut=    60.00 Ry     beta= 0.20
     Davidson diagonalization with overlap

---- Real-time Memory Report at c_bands before calling an iterative solver
         13177 MiB given to the printing process from OS
         11115 MiB allocation reported by mallinfo(arena+hblkhd)
         38948 MiB available memory on the node where the printing process lives
     GPU memory used/free/total (MiB): 32942 / 7499 / 40441
------------------
     ethr =  1.74E-09,  avg # of iterations =  1.0

     total cpu time spent up to now is     2146.6 secs

     total energy              =   -9183.51677431 Ry
     estimated scf accuracy    <       0.00201235 Ry

     total magnetization       =     1.67 Bohr mag/cell
     absolute magnetization    =     2.39 Bohr mag/cell
[tb_dev] Currently allocated     0.00E+00 Mbytes, locked:    0 /   0
[tb_pin] Currently allocated     0.00E+00 Mbytes, locked:    0 /   0

     iteration # 39     ecut=    60.00 Ry     beta= 0.20
     Davidson diagonalization with overlap

---- Real-time Memory Report at c_bands before calling an iterative solver
         13177 MiB given to the printing process from OS
         11115 MiB allocation reported by mallinfo(arena+hblkhd)
         38599 MiB available memory on the node where the printing process lives
     GPU memory used/free/total (MiB): 32942 / 7499 / 40441
------------------
     ethr =  1.74E-09,  avg # of iterations =  1.0

     total cpu time spent up to now is     2223.0 secs

     total energy              =   -9183.51193123 Ry
     estimated scf accuracy    <       0.00002103 Ry

     total magnetization       =     1.67 Bohr mag/cell
     absolute magnetization    =     2.27 Bohr mag/cell
[tb_dev] Currently allocated     0.00E+00 Mbytes, locked:    0 /   0
[tb_pin] Currently allocated     0.00E+00 Mbytes, locked:    0 /   0

     iteration # 40     ecut=    60.00 Ry     beta= 0.20
     Davidson diagonalization with overlap

---- Real-time Memory Report at c_bands before calling an iterative solver
         13177 MiB given to the printing process from OS
         11115 MiB allocation reported by mallinfo(arena+hblkhd)
         38806 MiB available memory on the node where the printing process lives
     GPU memory used/free/total (MiB): 32942 / 7499 / 40441
------------------
     ethr =  1.74E-09,  avg # of iterations =  1.0

     total cpu time spent up to now is     2297.6 secs

     total energy              =   -9183.51677423 Ry
     estimated scf accuracy    <       0.00201319 Ry

     total magnetization       =     1.67 Bohr mag/cell
     absolute magnetization    =     2.39 Bohr mag/cell
[tb_dev] Currently allocated     0.00E+00 Mbytes, locked:    0 /   0
[tb_pin] Currently allocated     0.00E+00 Mbytes, locked:    0 /   0

     iteration # 41     ecut=    60.00 Ry     beta= 0.20
     Davidson diagonalization with overlap

---- Real-time Memory Report at c_bands before calling an iterative solver
         13177 MiB given to the printing process from OS
         11115 MiB allocation reported by mallinfo(arena+hblkhd)
         37961 MiB available memory on the node where the printing process lives
     GPU memory used/free/total (MiB): 32942 / 7499 / 40441
------------------
     ethr =  1.74E-09,  avg # of iterations =  1.0

     total cpu time spent up to now is     2373.3 secs

     total energy              =   -9183.50797360 Ry
     estimated scf accuracy    <       0.00261906 Ry

     total magnetization       =     1.67 Bohr mag/cell
     absolute magnetization    =     2.37 Bohr mag/cell
[tb_dev] Currently allocated     0.00E+00 Mbytes, locked:    0 /   0
[tb_pin] Currently allocated     0.00E+00 Mbytes, locked:    0 /   0

     iteration # 42     ecut=    60.00 Ry     beta= 0.20
     Davidson diagonalization with overlap

---- Real-time Memory Report at c_bands before calling an iterative solver
         13177 MiB given to the printing process from OS
         11115 MiB allocation reported by mallinfo(arena+hblkhd)
         38645 MiB available memory on the node where the printing process lives
     GPU memory used/free/total (MiB): 32942 / 7499 / 40441
------------------
     ethr =  1.74E-09,  avg # of iterations =  1.0

     total cpu time spent up to now is     2448.1 secs

     total energy              =   -9183.50797362 Ry
     estimated scf accuracy    <       0.00261862 Ry

     total magnetization       =     1.67 Bohr mag/cell
     absolute magnetization    =     2.37 Bohr mag/cell
[tb_dev] Currently allocated     0.00E+00 Mbytes, locked:    0 /   0
[tb_pin] Currently allocated     0.00E+00 Mbytes, locked:    0 /   0

     iteration # 43     ecut=    60.00 Ry     beta= 0.20
     Davidson diagonalization with overlap

---- Real-time Memory Report at c_bands before calling an iterative solver
         13177 MiB given to the printing process from OS
         11115 MiB allocation reported by mallinfo(arena+hblkhd)
         38565 MiB available memory on the node where the printing process lives
     GPU memory used/free/total (MiB): 32942 / 7499 / 40441
------------------
     ethr =  1.74E-09,  avg # of iterations =  1.0

     total cpu time spent up to now is     2523.2 secs

     total energy              =   -9183.51677406 Ry
     estimated scf accuracy    <       0.00201473 Ry

     total magnetization       =     1.67 Bohr mag/cell
     absolute magnetization    =     2.39 Bohr mag/cell
[tb_dev] Currently allocated     0.00E+00 Mbytes, locked:    0 /   0
[tb_pin] Currently allocated     0.00E+00 Mbytes, locked:    0 /   0

     iteration # 44     ecut=    60.00 Ry     beta= 0.20
     Davidson diagonalization with overlap

---- Real-time Memory Report at c_bands before calling an iterative solver
         13177 MiB given to the printing process from OS
         11115 MiB allocation reported by mallinfo(arena+hblkhd)
         37573 MiB available memory on the node where the printing process lives
     GPU memory used/free/total (MiB): 32942 / 7499 / 40441
------------------
     ethr =  1.74E-09,  avg # of iterations =  1.0

     total cpu time spent up to now is     2599.5 secs

     total energy              =   -9183.50797346 Ry
     estimated scf accuracy    <       0.00262040 Ry

     total magnetization       =     1.67 Bohr mag/cell
     absolute magnetization    =     2.37 Bohr mag/cell
[tb_dev] Currently allocated     0.00E+00 Mbytes, locked:    0 /   0
[tb_pin] Currently allocated     0.00E+00 Mbytes, locked:    0 /   0

     iteration # 45     ecut=    60.00 Ry     beta= 0.20
     Davidson diagonalization with overlap

---- Real-time Memory Report at c_bands before calling an iterative solver
         13177 MiB given to the printing process from OS
         11115 MiB allocation reported by mallinfo(arena+hblkhd)
         38770 MiB available memory on the node where the printing process lives
     GPU memory used/free/total (MiB): 32942 / 7499 / 40441
------------------
     ethr =  1.74E-09,  avg # of iterations =  1.0

     total cpu time spent up to now is     2672.8 secs

     total energy              =   -9183.50797346 Ry
     estimated scf accuracy    <       0.00261968 Ry

     total magnetization       =     1.67 Bohr mag/cell
     absolute magnetization    =     2.37 Bohr mag/cell
[tb_dev] Currently allocated     0.00E+00 Mbytes, locked:    0 /   0
[tb_pin] Currently allocated     0.00E+00 Mbytes, locked:    0 /   0

     iteration # 46     ecut=    60.00 Ry     beta= 0.20
     Davidson diagonalization with overlap

---- Real-time Memory Report at c_bands before calling an iterative solver
         13177 MiB given to the printing process from OS
         11115 MiB allocation reported by mallinfo(arena+hblkhd)
         37826 MiB available memory on the node where the printing process lives
     GPU memory used/free/total (MiB): 32942 / 7499 / 40441
------------------
     ethr =  1.74E-09,  avg # of iterations =  1.0

     total cpu time spent up to now is     2740.0 secs

     total energy              =   -9183.50797342 Ry
     estimated scf accuracy    <       0.00261945 Ry

     total magnetization       =     1.67 Bohr mag/cell
     absolute magnetization    =     2.37 Bohr mag/cell
[tb_dev] Currently allocated     0.00E+00 Mbytes, locked:    0 /   0
[tb_pin] Currently allocated     0.00E+00 Mbytes, locked:    0 /   0

     iteration # 47     ecut=    60.00 Ry     beta= 0.20
     Davidson diagonalization with overlap

---- Real-time Memory Report at c_bands before calling an iterative solver
         13177 MiB given to the printing process from OS
         11115 MiB allocation reported by mallinfo(arena+hblkhd)
         38119 MiB available memory on the node where the printing process lives
     GPU memory used/free/total (MiB): 32942 / 7499 / 40441
------------------
     ethr =  1.74E-09,  avg # of iterations =  1.0

     total cpu time spent up to now is     2813.4 secs

     total energy              =   -9183.50797340 Ry
     estimated scf accuracy    <       0.00261982 Ry

     total magnetization       =     1.67 Bohr mag/cell
     absolute magnetization    =     2.37 Bohr mag/cell
[tb_dev] Currently allocated     0.00E+00 Mbytes, locked:    0 /   0
[tb_pin] Currently allocated     0.00E+00 Mbytes, locked:    0 /   0

     iteration # 48     ecut=    60.00 Ry     beta= 0.20
     Davidson diagonalization with overlap

---- Real-time Memory Report at c_bands before calling an iterative solver
         13177 MiB given to the printing process from OS
         11115 MiB allocation reported by mallinfo(arena+hblkhd)
         38028 MiB available memory on the node where the printing process lives
     GPU memory used/free/total (MiB): 32942 / 7499 / 40441
------------------
     ethr =  1.74E-09,  avg # of iterations =  1.0

     total cpu time spent up to now is     2887.8 secs

     total energy              =   -9183.50797340 Ry
     estimated scf accuracy    <       0.00261998 Ry

     total magnetization       =     1.67 Bohr mag/cell
     absolute magnetization    =     2.37 Bohr mag/cell
[tb_dev] Currently allocated     0.00E+00 Mbytes, locked:    0 /   0
[tb_pin] Currently allocated     0.00E+00 Mbytes, locked:    0 /   0

     iteration # 49     ecut=    60.00 Ry     beta= 0.20
     Davidson diagonalization with overlap

---- Real-time Memory Report at c_bands before calling an iterative solver
         13177 MiB given to the printing process from OS
         11115 MiB allocation reported by mallinfo(arena+hblkhd)
         37673 MiB available memory on the node where the printing process lives
     GPU memory used/free/total (MiB): 32942 / 7499 / 40441
------------------
     ethr =  1.74E-09,  avg # of iterations =  1.0

     total cpu time spent up to now is     2963.5 secs

     total energy              =   -9183.50797328 Ry
     estimated scf accuracy    <       0.00261976 Ry

     total magnetization       =     1.67 Bohr mag/cell
     absolute magnetization    =     2.37 Bohr mag/cell
[tb_dev] Currently allocated     0.00E+00 Mbytes, locked:    0 /   0
[tb_pin] Currently allocated     0.00E+00 Mbytes, locked:    0 /   0

     iteration # 50     ecut=    60.00 Ry     beta= 0.20
     Davidson diagonalization with overlap

---- Real-time Memory Report at c_bands before calling an iterative solver
         13177 MiB given to the printing process from OS
         11115 MiB allocation reported by mallinfo(arena+hblkhd)
         38168 MiB available memory on the node where the printing process lives
     GPU memory used/free/total (MiB): 32942 / 7499 / 40441
------------------
     ethr =  1.74E-09,  avg # of iterations =  1.0

     total cpu time spent up to now is     3038.9 secs

     total energy              =   -9183.50797338 Ry
     estimated scf accuracy    <       0.00262016 Ry

     total magnetization       =     1.67 Bohr mag/cell
     absolute magnetization    =     2.37 Bohr mag/cell
[tb_dev] Currently allocated     0.00E+00 Mbytes, locked:    0 /   0
[tb_pin] Currently allocated     0.00E+00 Mbytes, locked:    0 /   0

     iteration # 51     ecut=    60.00 Ry     beta= 0.20
     Davidson diagonalization with overlap

---- Real-time Memory Report at c_bands before calling an iterative solver
         13177 MiB given to the printing process from OS
         11115 MiB allocation reported by mallinfo(arena+hblkhd)
         37558 MiB available memory on the node where the printing process lives
     GPU memory used/free/total (MiB): 32942 / 7499 / 40441
------------------
     ethr =  1.74E-09,  avg # of iterations =  1.0

     total cpu time spent up to now is     3114.0 secs

     total energy              =   -9183.50797329 Ry
     estimated scf accuracy    <       0.00261982 Ry

     total magnetization       =     1.67 Bohr mag/cell
     absolute magnetization    =     2.37 Bohr mag/cell
[tb_dev] Currently allocated     0.00E+00 Mbytes, locked:    0 /   0
[tb_pin] Currently allocated     0.00E+00 Mbytes, locked:    0 /   0

     iteration # 52     ecut=    60.00 Ry     beta= 0.20
     Davidson diagonalization with overlap

---- Real-time Memory Report at c_bands before calling an iterative solver
         13177 MiB given to the printing process from OS
         11115 MiB allocation reported by mallinfo(arena+hblkhd)
         50253 MiB available memory on the node where the printing process lives
     GPU memory used/free/total (MiB): 32942 / 7499 / 40441
------------------
     ethr =  1.74E-09,  avg # of iterations =  1.0

     total cpu time spent up to now is     3186.2 secs

     total energy              =   -9183.50721307 Ry
     estimated scf accuracy    <       0.00262024 Ry

     total magnetization       =     1.67 Bohr mag/cell
     absolute magnetization    =     2.37 Bohr mag/cell
[tb_dev] Currently allocated     0.00E+00 Mbytes, locked:    0 /   0
[tb_pin] Currently allocated     0.00E+00 Mbytes, locked:    0 /   0

     iteration # 53     ecut=    60.00 Ry     beta= 0.20
     Davidson diagonalization with overlap

---- Real-time Memory Report at c_bands before calling an iterative solver
         13177 MiB given to the printing process from OS
         11115 MiB allocation reported by mallinfo(arena+hblkhd)
         40264 MiB available memory on the node where the printing process lives
     GPU memory used/free/total (MiB): 32942 / 7499 / 40441
------------------
     ethr =  1.74E-09,  avg # of iterations =  9.9

     total cpu time spent up to now is     3348.7 secs

     total energy              =   -9183.50760971 Ry
     estimated scf accuracy    <       0.00228955 Ry

     total magnetization       =     1.67 Bohr mag/cell
     absolute magnetization    =     2.65 Bohr mag/cell
[tb_dev] Currently allocated     0.00E+00 Mbytes, locked:    0 /   0
[tb_pin] Currently allocated     0.00E+00 Mbytes, locked:    0 /   0

     iteration # 54     ecut=    60.00 Ry     beta= 0.20
     Davidson diagonalization with overlap

---- Real-time Memory Report at c_bands before calling an iterative solver
         13177 MiB given to the printing process from OS
         11115 MiB allocation reported by mallinfo(arena+hblkhd)
         39061 MiB available memory on the node where the printing process lives
     GPU memory used/free/total (MiB): 32972 / 7469 / 40441
------------------
     ethr =  1.74E-09,  avg # of iterations =  6.4

     total cpu time spent up to now is     3470.6 secs

     total energy              =   -9183.50751347 Ry
     estimated scf accuracy    <       0.00384818 Ry

     total magnetization       =     1.67 Bohr mag/cell
     absolute magnetization    =     2.66 Bohr mag/cell
[tb_dev] Currently allocated     0.00E+00 Mbytes, locked:    0 /   0
[tb_pin] Currently allocated     0.00E+00 Mbytes, locked:    0 /   0

     iteration # 55     ecut=    60.00 Ry     beta= 0.20
     Davidson diagonalization with overlap

---- Real-time Memory Report at c_bands before calling an iterative solver
         13177 MiB given to the printing process from OS
         11115 MiB allocation reported by mallinfo(arena+hblkhd)
         40061 MiB available memory on the node where the printing process lives
     GPU memory used/free/total (MiB): 32972 / 7469 / 40441
------------------
     ethr =  1.74E-09,  avg # of iterations =  6.6

     total cpu time spent up to now is     3587.3 secs

     total energy              =   -9183.50700556 Ry
     estimated scf accuracy    <       0.00444705 Ry

     total magnetization       =     1.67 Bohr mag/cell
     absolute magnetization    =     2.63 Bohr mag/cell
[tb_dev] Currently allocated     0.00E+00 Mbytes, locked:    0 /   0
[tb_pin] Currently allocated     0.00E+00 Mbytes, locked:    0 /   0

     iteration # 56     ecut=    60.00 Ry     beta= 0.20
     Davidson diagonalization with overlap

---- Real-time Memory Report at c_bands before calling an iterative solver
         13178 MiB given to the printing process from OS
         11115 MiB allocation reported by mallinfo(arena+hblkhd)
         41551 MiB available memory on the node where the printing process lives
     GPU memory used/free/total (MiB): 32972 / 7469 / 40441
------------------
     ethr =  1.74E-09,  avg # of iterations =  6.5

     total cpu time spent up to now is     3717.7 secs

     total energy              =   -9183.50650321 Ry
     estimated scf accuracy    <       0.00713860 Ry

     total magnetization       =     1.67 Bohr mag/cell
     absolute magnetization    =     2.64 Bohr mag/cell
[tb_dev] Currently allocated     0.00E+00 Mbytes, locked:    0 /   0
[tb_pin] Currently allocated     0.00E+00 Mbytes, locked:    0 /   0

     iteration # 57     ecut=    60.00 Ry     beta= 0.20
     Davidson diagonalization with overlap

---- Real-time Memory Report at c_bands before calling an iterative solver
         13178 MiB given to the printing process from OS
         11115 MiB allocation reported by mallinfo(arena+hblkhd)
         41229 MiB available memory on the node where the printing process lives
     GPU memory used/free/total (MiB): 32972 / 7469 / 40441
------------------
     ethr =  1.74E-09,  avg # of iterations = 10.7

     total cpu time spent up to now is     3894.7 secs

     total energy              =   -9183.50816850 Ry
     estimated scf accuracy    <       0.00018154 Ry

     total magnetization       =     1.67 Bohr mag/cell
     absolute magnetization    =     2.73 Bohr mag/cell
[tb_dev] Currently allocated     0.00E+00 Mbytes, locked:    0 /   0
[tb_pin] Currently allocated     0.00E+00 Mbytes, locked:    0 /   0

     iteration # 58     ecut=    60.00 Ry     beta= 0.20
     Davidson diagonalization with overlap

---- Real-time Memory Report at c_bands before calling an iterative solver
         13178 MiB given to the printing process from OS
         11115 MiB allocation reported by mallinfo(arena+hblkhd)
         41375 MiB available memory on the node where the printing process lives
     GPU memory used/free/total (MiB): 32972 / 7469 / 40441
------------------
     ethr =  1.74E-09,  avg # of iterations =  2.5

     total cpu time spent up to now is     3977.6 secs

     total energy              =   -9183.50816539 Ry
     estimated scf accuracy    <       0.00010674 Ry

     total magnetization       =     1.67 Bohr mag/cell
     absolute magnetization    =     2.74 Bohr mag/cell
[tb_dev] Currently allocated     0.00E+00 Mbytes, locked:    0 /   0
[tb_pin] Currently allocated     0.00E+00 Mbytes, locked:    0 /   0

     iteration # 59     ecut=    60.00 Ry     beta= 0.20
     Davidson diagonalization with overlap

---- Real-time Memory Report at c_bands before calling an iterative solver
         13178 MiB given to the printing process from OS
         11115 MiB allocation reported by mallinfo(arena+hblkhd)
         41290 MiB available memory on the node where the printing process lives
     GPU memory used/free/total (MiB): 32972 / 7469 / 40441
------------------
     ethr =  1.74E-09,  avg # of iterations =  5.9

     total cpu time spent up to now is     4089.6 secs

     total energy              =   -9183.50820578 Ry
     estimated scf accuracy    <       0.00004437 Ry

     total magnetization       =     1.67 Bohr mag/cell
     absolute magnetization    =     2.68 Bohr mag/cell
[tb_dev] Currently allocated     0.00E+00 Mbytes, locked:    0 /   0
[tb_pin] Currently allocated     0.00E+00 Mbytes, locked:    0 /   0

     iteration # 60     ecut=    60.00 Ry     beta= 0.20
     Davidson diagonalization with overlap

---- Real-time Memory Report at c_bands before calling an iterative solver
         13197 MiB given to the printing process from OS
[...]

     total energy              =   -9183.51192954 Ry
     estimated scf accuracy    <       0.00003726 Ry

     total magnetization       =     1.67 Bohr mag/cell
     absolute magnetization    =     2.27 Bohr mag/cell
[tb_dev] Currently allocated     0.00E+00 Mbytes, locked:    0 /   0
[tb_pin] Currently allocated     0.00E+00 Mbytes, locked:    0 /   0

     iteration # 87     ecut=    60.00 Ry     beta= 0.20
     Davidson diagonalization with overlap

---- Real-time Memory Report at c_bands before calling an iterative solver
         13197 MiB given to the printing process from OS
         11132 MiB allocation reported by mallinfo(arena+hblkhd)
         13333 MiB available memory on the node where the printing process lives
     GPU memory used/free/total (MiB): 28464 / 11977 / 40441
------------------
     ethr =  1.74E-09,  avg # of iterations =  1.0

     total cpu time spent up to now is     6022.8 secs

     total energy              =   -9183.51192969 Ry
     estimated scf accuracy    <       0.00003558 Ry

     total magnetization       =     1.67 Bohr mag/cell
     absolute magnetization    =     2.27 Bohr mag/cell
[tb_dev] Currently allocated     0.00E+00 Mbytes, locked:    0 /   0
[tb_pin] Currently allocated     0.00E+00 Mbytes, locked:    0 /   0

     iteration # 88     ecut=    60.00 Ry     beta= 0.20
     Davidson diagonalization with overlap

---- Real-time Memory Report at c_bands before calling an iterative solver
         13197 MiB given to the printing process from OS
         11132 MiB allocation reported by mallinfo(arena+hblkhd)
         13468 MiB available memory on the node where the printing process lives
     GPU memory used/free/total (MiB): 28464 / 11977 / 40441
------------------
     ethr =  1.74E-09,  avg # of iterations =  1.0

     total cpu time spent up to now is     6082.2 secs

     total energy              =   -9183.51678417 Ry
     estimated scf accuracy    <       0.00189308 Ry

     total magnetization       =     1.67 Bohr mag/cell
     absolute magnetization    =     2.39 Bohr mag/cell
[tb_dev] Currently allocated     0.00E+00 Mbytes, locked:    0 /   0
[tb_pin] Currently allocated     0.00E+00 Mbytes, locked:    0 /   0

     iteration # 89     ecut=    60.00 Ry     beta= 0.20
     Davidson diagonalization with overlap

---- Real-time Memory Report at c_bands before calling an iterative solver
         13197 MiB given to the printing process from OS
         11132 MiB allocation reported by mallinfo(arena+hblkhd)
         13440 MiB available memory on the node where the printing process lives
     GPU memory used/free/total (MiB): 28854 / 11587 / 40441
------------------
     ethr =  1.74E-09,  avg # of iterations =  1.0

     total cpu time spent up to now is     6151.1 secs

     total energy              =   -9183.50798964 Ry
     estimated scf accuracy    <       0.00247629 Ry

     total magnetization       =     1.67 Bohr mag/cell
     absolute magnetization    =     2.38 Bohr mag/cell
[tb_dev] Currently allocated     0.00E+00 Mbytes, locked:    0 /   0
[tb_pin] Currently allocated     0.00E+00 Mbytes, locked:    0 /   0

     iteration # 90     ecut=    60.00 Ry     beta= 0.20
     Davidson diagonalization with overlap

---- Real-time Memory Report at c_bands before calling an iterative solver
         13197 MiB given to the printing process from OS
         11132 MiB allocation reported by mallinfo(arena+hblkhd)
         14234 MiB available memory on the node where the printing process lives
     GPU memory used/free/total (MiB): 28854 / 11587 / 40441
------------------
     ethr =  1.74E-09,  avg # of iterations =  1.0

     total cpu time spent up to now is     6178.4 secs

     total energy              =   -9183.51192966 Ry
     estimated scf accuracy    <       0.00003536 Ry

     total magnetization       =     1.67 Bohr mag/cell
     absolute magnetization    =     2.27 Bohr mag/cell
[tb_dev] Currently allocated     0.00E+00 Mbytes, locked:    0 /   0
[tb_pin] Currently allocated     0.00E+00 Mbytes, locked:    0 /   0

     iteration # 91     ecut=    60.00 Ry     beta= 0.20
     Davidson diagonalization with overlap

---- Real-time Memory Report at c_bands before calling an iterative solver
         13197 MiB given to the printing process from OS
         11132 MiB allocation reported by mallinfo(arena+hblkhd)
         13982 MiB available memory on the node where the printing process lives
     GPU memory used/free/total (MiB): 28854 / 11587 / 40441
------------------
     ethr =  1.74E-09,  avg # of iterations =  1.0

     total cpu time spent up to now is     6205.3 secs

     total energy              =   -9183.51192975 Ry
     estimated scf accuracy    <       0.00003435 Ry

     total magnetization       =     1.67 Bohr mag/cell
     absolute magnetization    =     2.27 Bohr mag/cell
[tb_dev] Currently allocated     0.00E+00 Mbytes, locked:    0 /   0
[tb_pin] Currently allocated     0.00E+00 Mbytes, locked:    0 /   0

     iteration # 92     ecut=    60.00 Ry     beta= 0.20
     Davidson diagonalization with overlap

---- Real-time Memory Report at c_bands before calling an iterative solver
         13197 MiB given to the printing process from OS
         11132 MiB allocation reported by mallinfo(arena+hblkhd)
         14047 MiB available memory on the node where the printing process lives
     GPU memory used/free/total (MiB): 28854 / 11587 / 40441
------------------
     ethr =  1.74E-09,  avg # of iterations =  1.0

     total cpu time spent up to now is     6231.5 secs

     total energy              =   -9183.51678312 Ry
     estimated scf accuracy    <       0.00190124 Ry

     total magnetization       =     1.67 Bohr mag/cell
     absolute magnetization    =     2.39 Bohr mag/cell
[tb_dev] Currently allocated     0.00E+00 Mbytes, locked:    0 /   0
[tb_pin] Currently allocated     0.00E+00 Mbytes, locked:    0 /   0

     iteration # 93     ecut=    60.00 Ry     beta= 0.20
     Davidson diagonalization with overlap

---- Real-time Memory Report at c_bands before calling an iterative solver
         13197 MiB given to the printing process from OS
         11132 MiB allocation reported by mallinfo(arena+hblkhd)
         14010 MiB available memory on the node where the printing process lives
     GPU memory used/free/total (MiB): 28854 / 11587 / 40441
------------------
     ethr =  1.74E-09,  avg # of iterations =  1.0
     Spin Component #  1
     Minimization algorithm failed to find Fermi energy: reverting to bisection
     Possible cause: smearing is larger than the electronic band-gap.

     total cpu time spent up to now is     6269.9 secs

     total energy              =   -9183.51192985 Ry
     estimated scf accuracy    <       0.00003339 Ry

     total magnetization       =     1.67 Bohr mag/cell
     absolute magnetization    =     2.27 Bohr mag/cell
[tb_dev] Currently allocated     0.00E+00 Mbytes, locked:    0 /   0
[tb_pin] Currently allocated     0.00E+00 Mbytes, locked:    0 /   0

     iteration # 94     ecut=    60.00 Ry     beta= 0.20
     Davidson diagonalization with overlap

---- Real-time Memory Report at c_bands before calling an iterative solver
         13197 MiB given to the printing process from OS
         11132 MiB allocation reported by mallinfo(arena+hblkhd)
         13780 MiB available memory on the node where the printing process lives
     GPU memory used/free/total (MiB): 28854 / 11587 / 40441
------------------
     ethr =  1.74E-09,  avg # of iterations =  1.0
     Spin Component #  1
     Minimization algorithm failed to find Fermi energy: reverting to bisection
     Possible cause: smearing is larger than the electronic band-gap.

     total cpu time spent up to now is     6338.2 secs

     total energy              =   -9183.51192985 Ry
     estimated scf accuracy    <       0.00003257 Ry

     total magnetization       =     1.67 Bohr mag/cell
     absolute magnetization    =     2.27 Bohr mag/cell
[tb_dev] Currently allocated     0.00E+00 Mbytes, locked:    0 /   0
[tb_pin] Currently allocated     0.00E+00 Mbytes, locked:    0 /   0

     iteration # 95     ecut=    60.00 Ry     beta= 0.20
     Davidson diagonalization with overlap

---- Real-time Memory Report at c_bands before calling an iterative solver
         13197 MiB given to the printing process from OS
         11132 MiB allocation reported by mallinfo(arena+hblkhd)
         13865 MiB available memory on the node where the printing process lives
     GPU memory used/free/total (MiB): 28854 / 11587 / 40441
------------------
     ethr =  1.74E-09,  avg # of iterations =  1.0
     Spin Component #  1
     Minimization algorithm failed to find Fermi energy: reverting to bisection
     Possible cause: smearing is larger than the electronic band-gap.

     total cpu time spent up to now is     6388.3 secs

     total energy              =   -9183.51192987 Ry
     estimated scf accuracy    <       0.00003246 Ry

     total magnetization       =     1.67 Bohr mag/cell
     absolute magnetization    =     2.27 Bohr mag/cell
[tb_dev] Currently allocated     0.00E+00 Mbytes, locked:    0 /   0
[tb_pin] Currently allocated     0.00E+00 Mbytes, locked:    0 /   0

     iteration # 96     ecut=    60.00 Ry     beta= 0.20
     Davidson diagonalization with overlap

---- Real-time Memory Report at c_bands before calling an iterative solver
         13197 MiB given to the printing process from OS
         11132 MiB allocation reported by mallinfo(arena+hblkhd)
         13824 MiB available memory on the node where the printing process lives
     GPU memory used/free/total (MiB): 28854 / 11587 / 40441
------------------
     ethr =  1.74E-09,  avg # of iterations =  1.0
     Spin Component #  1
     Minimization algorithm failed to find Fermi energy: reverting to bisection
     Possible cause: smearing is larger than the electronic band-gap.

     total cpu time spent up to now is     6414.4 secs

     total energy              =   -9183.51192989 Ry
     estimated scf accuracy    <       0.00003229 Ry

     total magnetization       =     1.67 Bohr mag/cell
     absolute magnetization    =     2.27 Bohr mag/cell
[tb_dev] Currently allocated     0.00E+00 Mbytes, locked:    0 /   0
[tb_pin] Currently allocated     0.00E+00 Mbytes, locked:    0 /   0

     iteration # 97     ecut=    60.00 Ry     beta= 0.20
     Davidson diagonalization with overlap

---- Real-time Memory Report at c_bands before calling an iterative solver
         13197 MiB given to the printing process from OS
         11132 MiB allocation reported by mallinfo(arena+hblkhd)
         14113 MiB available memory on the node where the printing process lives
     GPU memory used/free/total (MiB): 28854 / 11587 / 40441
------------------
     ethr =  1.74E-09,  avg # of iterations =  1.0
     Spin Component #  1
     Minimization algorithm failed to find Fermi energy: reverting to bisection
     Possible cause: smearing is larger than the electronic band-gap.

     total cpu time spent up to now is     6441.0 secs

     total energy              =   -9183.51192994 Ry
     estimated scf accuracy    <       0.00003204 Ry

     total magnetization       =     1.67 Bohr mag/cell
     absolute magnetization    =     2.27 Bohr mag/cell
[tb_dev] Currently allocated     0.00E+00 Mbytes, locked:    0 /   0
[tb_pin] Currently allocated     0.00E+00 Mbytes, locked:    0 /   0

     iteration # 98     ecut=    60.00 Ry     beta= 0.20
     Davidson diagonalization with overlap

---- Real-time Memory Report at c_bands before calling an iterative solver
         13197 MiB given to the printing process from OS
         11132 MiB allocation reported by mallinfo(arena+hblkhd)
         14594 MiB available memory on the node where the printing process lives
     GPU memory used/free/total (MiB): 28854 / 11587 / 40441
------------------
     ethr =  1.74E-09,  avg # of iterations =  1.0

     total cpu time spent up to now is     6469.9 secs

     total energy              =   -9183.50798671 Ry
     estimated scf accuracy    <       0.00249947 Ry

     total magnetization       =     1.67 Bohr mag/cell
     absolute magnetization    =     2.38 Bohr mag/cell
[tb_dev] Currently allocated     0.00E+00 Mbytes, locked:    0 /   0
[tb_pin] Currently allocated     0.00E+00 Mbytes, locked:    0 /   0

     iteration # 99     ecut=    60.00 Ry     beta= 0.20
     Davidson diagonalization with overlap

---- Real-time Memory Report at c_bands before calling an iterative solver
         13197 MiB given to the printing process from OS
         11132 MiB allocation reported by mallinfo(arena+hblkhd)
         14770 MiB available memory on the node where the printing process lives
     GPU memory used/free/total (MiB): 28854 / 11587 / 40441
------------------
     ethr =  1.74E-09,  avg # of iterations =  1.0
     Spin Component #  1
     Minimization algorithm failed to find Fermi energy: reverting to bisection
     Possible cause: smearing is larger than the electronic band-gap.

     total cpu time spent up to now is     6524.6 secs

     total energy              =   -9183.51192991 Ry
     estimated scf accuracy    <       0.00003199 Ry

     total magnetization       =     1.67 Bohr mag/cell
     absolute magnetization    =     2.27 Bohr mag/cell
[tb_dev] Currently allocated     0.00E+00 Mbytes, locked:    0 /   0
[tb_pin] Currently allocated     0.00E+00 Mbytes, locked:    0 /   0

     iteration #100     ecut=    60.00 Ry     beta= 0.20
     Davidson diagonalization with overlap

---- Real-time Memory Report at c_bands before calling an iterative solver
         13197 MiB given to the printing process from OS
         11132 MiB allocation reported by mallinfo(arena+hblkhd)
         14571 MiB available memory on the node where the printing process lives
     GPU memory used/free/total (MiB): 28854 / 11587 / 40441
------------------
     ethr =  1.74E-09,  avg # of iterations =  1.0

     total cpu time spent up to now is     6593.0 secs

     total energy              =   -9183.51192985 Ry
     estimated scf accuracy    <       0.00003200 Ry

     total magnetization       =     1.67 Bohr mag/cell
     absolute magnetization    =     2.27 Bohr mag/cell
[tb_dev] Currently allocated     0.00E+00 Mbytes, locked:    0 /   0
[tb_pin] Currently allocated     0.00E+00 Mbytes, locked:    0 /   0

     iteration #101     ecut=    60.00 Ry     beta= 0.20
     Davidson diagonalization with overlap

---- Real-time Memory Report at c_bands before calling an iterative solver
         13197 MiB given to the printing process from OS
         11132 MiB allocation reported by mallinfo(arena+hblkhd)
         14576 MiB available memory on the node where the printing process lives
     GPU memory used/free/total (MiB): 28854 / 11587 / 40441
------------------
     ethr =  1.74E-09,  avg # of iterations =  1.0

     total cpu time spent up to now is     6626.5 secs

     total energy              =   -9183.50798691 Ry
     estimated scf accuracy    <       0.00249034 Ry

     total magnetization       =     1.67 Bohr mag/cell
     absolute magnetization    =     2.38 Bohr mag/cell
[tb_dev] Currently allocated     0.00E+00 Mbytes, locked:    0 /   0
[tb_pin] Currently allocated     0.00E+00 Mbytes, locked:    0 /   0

     iteration #102     ecut=    60.00 Ry     beta= 0.20
     Davidson diagonalization with overlap

---- Real-time Memory Report at c_bands before calling an iterative solver
         13197 MiB given to the printing process from OS
         11132 MiB allocation reported by mallinfo(arena+hblkhd)
         15712 MiB available memory on the node where the printing process lives
     GPU memory used/free/total (MiB): 28854 / 11587 / 40441
------------------
     ethr =  1.74E-09,  avg # of iterations =  1.0
     Spin Component #  1
     Minimization algorithm failed to find Fermi energy: reverting to bisection
     Possible cause: smearing is larger than the electronic band-gap.

     total cpu time spent up to now is     6652.8 secs

     total energy              =   -9183.51192988 Ry
     estimated scf accuracy    <       0.00003229 Ry

     total magnetization       =     1.67 Bohr mag/cell
     absolute magnetization    =     2.27 Bohr mag/cell
[tb_dev] Currently allocated     0.00E+00 Mbytes, locked:    0 /   0
[tb_pin] Currently allocated     0.00E+00 Mbytes, locked:    0 /   0

     iteration #103     ecut=    60.00 Ry     beta= 0.20
     Davidson diagonalization with overlap

---- Real-time Memory Report at c_bands before calling an iterative solver
         13197 MiB given to the printing process from OS
         11132 MiB allocation reported by mallinfo(arena+hblkhd)
         16011 MiB available memory on the node where the printing process lives
     GPU memory used/free/total (MiB): 28854 / 11587 / 40441
------------------
     ethr =  1.74E-09,  avg # of iterations =  1.0
     Spin Component #  1
     Minimization algorithm failed to find Fermi energy: reverting to bisection
     Possible cause: smearing is larger than the electronic band-gap.

     total cpu time spent up to now is     6680.7 secs

     total energy              =   -9183.51192991 Ry
     estimated scf accuracy    <       0.00003231 Ry

     total magnetization       =     1.67 Bohr mag/cell
     absolute magnetization    =     2.27 Bohr mag/cell
[tb_dev] Currently allocated     0.00E+00 Mbytes, locked:    0 /   0
[tb_pin] Currently allocated     0.00E+00 Mbytes, locked:    0 /   0

     iteration #104     ecut=    60.00 Ry     beta= 0.20
     Davidson diagonalization with overlap

---- Real-time Memory Report at c_bands before calling an iterative solver
         13197 MiB given to the printing process from OS
         11132 MiB allocation reported by mallinfo(arena+hblkhd)
         15893 MiB available memory on the node where the printing process lives
     GPU memory used/free/total (MiB): 28854 / 11587 / 40441
------------------
     ethr =  1.74E-09,  avg # of iterations =  1.0

     total cpu time spent up to now is     6712.3 secs

     total energy              =   -9183.51678198 Ry
     estimated scf accuracy    <       0.00191585 Ry

     total magnetization       =     1.67 Bohr mag/cell
     absolute magnetization    =     2.39 Bohr mag/cell
[tb_dev] Currently allocated     0.00E+00 Mbytes, locked:    0 /   0
[tb_pin] Currently allocated     0.00E+00 Mbytes, locked:    0 /   0

     iteration #105     ecut=    60.00 Ry     beta= 0.20
     Davidson diagonalization with overlap

---- Real-time Memory Report at c_bands before calling an iterative solver
         13197 MiB given to the printing process from OS
         11132 MiB allocation reported by mallinfo(arena+hblkhd)
         15247 MiB available memory on the node where the printing process lives
     GPU memory used/free/total (MiB): 28854 / 11587 / 40441
------------------
     ethr =  1.74E-09,  avg # of iterations =  1.0
     Spin Component #  1
     Minimization algorithm failed to find Fermi energy: reverting to bisection
     Possible cause: smearing is larger than the electronic band-gap.

     total cpu time spent up to now is     6782.0 secs

     total energy              =   -9183.51192991 Ry
     estimated scf accuracy    <       0.00003214 Ry

     total magnetization       =     1.67 Bohr mag/cell
     absolute magnetization    =     2.27 Bohr mag/cell
[tb_dev] Currently allocated     0.00E+00 Mbytes, locked:    0 /   0
[tb_pin] Currently allocated     0.00E+00 Mbytes, locked:    0 /   0

     iteration #106     ecut=    60.00 Ry     beta= 0.20
     Davidson diagonalization with overlap

---- Real-time Memory Report at c_bands before calling an iterative solver
         13197 MiB given to the printing process from OS
         11132 MiB allocation reported by mallinfo(arena+hblkhd)
         15660 MiB available memory on the node where the printing process lives
     GPU memory used/free/total (MiB): 28854 / 11587 / 40441
------------------
