
     Program PWSCF v.7.5 starts on 29May2026 at  2:23:14 

     This program is part of the open-source Quantum ESPRESSO suite
     for quantum simulation of materials; please cite
         "P. Giannozzi et al., J. Phys.:Condens. Matter 21 395502 (2009);
         "P. Giannozzi et al., J. Phys.:Condens. Matter 29 465901 (2017);
         "P. Giannozzi et al., J. Chem. Phys. 152 154105 (2020);
          URL http://www.quantum-espresso.org", 
     in publications or presentations arising from this work. More details at
     http://www.quantum-espresso.org/quote

     Parallel version (MPI & OpenMP), running on       6 processor cores
     Number of MPI processes:                 1
     Threads/MPI process:                     6

     MPI processes distributed on     1 nodes
     25656 MiB available memory on the printing compute node when the environment starts
 
     Reading input from marc_endB_m113.in
Warning: card &CELL ignored
Warning: card &FCP ignored
Warning: card &RISM ignored

     Current dimensions of program PWSCF are:
     Max number of different atomic species (ntypx) = 10
     Max number of k-points (npk) =  40000
     Max angular momentum in pseudopotentials (lmaxx) =  4
 
     Subspace diagonalization in iterative solution of the eigenvalue problem:
     a serial algorithm will be used

 
     G-vector sticks info
     --------------------
     sticks:   dense  smooth     PW     G-vecs:    dense   smooth      PW
     Sum        6591    6591   1755               553421   553421   76211
 
     Using Slab Decomposition
 


     bravais-lattice index     =            0
     lattice parameter (alat)  =      16.7921  a.u.
     unit-cell volume          =    8814.7061 (a.u.)^3
     number of atoms/cell      =           96
     number of atomic types    =            3
     number of electrons       =       881.00 (up: 441.06, down: 439.94)
     number of Kohn-Sham states=          529
     kinetic-energy cutoff     =      60.0000  Ry
     charge density cutoff     =     240.0000  Ry
     scf convergence threshold =      1.0E-08
     mixing beta               =       0.2000
     number of iterations used =           12  local-TF  mixing
     Exchange-correlation= PBE
                           (   1   4   3   4   0   0   0)

     GPU acceleration is ACTIVE.  1 visible GPUs per MPI rank


     GPU used by master process:

        Device Number: 0
        Device name: NVIDIA A100-SXM4-40GB
        Compute capability : 80
        Ratio of single to double precision performance  : 2
        Memory Clock Rate (KHz): 1215000
        Memory Bus Width (bits): 5120
        Peak Memory Bandwidth (GB/s): ******

     celldm(1)=  16.792106  celldm(2)=   0.000000  celldm(3)=   0.000000
     celldm(4)=   0.000000  celldm(5)=   0.000000  celldm(6)=   0.000000

     crystal axes: (cart. coord. in units of alat)
               a(1) = (   1.000000   0.000000   0.000000 )  
               a(2) = (   0.000000   1.221022   0.000000 )  
               a(3) = (   0.000000   0.000000   1.524646 )  

     reciprocal axes: (cart. coord. in units 2 pi/alat)
               b(1) = (  1.000000  0.000000  0.000000 )  
               b(2) = (  0.000000  0.818986  0.000000 )  
               b(3) = (  0.000000  0.000000  0.655890 )  


     PseudoPot. # 1 for Fe read from file:
     /opt/pp/oncv_pbe/Fe.upf
     MD5 check sum: a5f07f5dca5be6cacb81ceb54992e4ae
     Pseudo is Norm-conserving + core correction, Zval = 16.0
     Generated using ONCVPSP code by D. R. Hamann
     Using radial grid of 1426 points,  6 beta functions with: 
                l(1) =   0
                l(2) =   0
                l(3) =   1
                l(4) =   1
                l(5) =   2
                l(6) =   2

     PseudoPot. # 2 for S  read from file:
     /opt/pp/oncv_pbe/S.upf
     MD5 check sum: 6027e7704d67ae28863b2247926ce6f3
     Pseudo is Norm-conserving + core correction, Zval =  6.0
     Generated using ONCVPSP code by D. R. Hamann
     Using radial grid of 1146 points,  6 beta functions with: 
                l(1) =   0
                l(2) =   0
                l(3) =   1
                l(4) =   1
                l(5) =   2
                l(6) =   2

     PseudoPot. # 3 for H  read from file:
     /opt/pp/oncv_pbe/H.upf
     MD5 check sum: e96aa7e3e4a958db16958554ea960e2a
     Pseudo is Norm-conserving, Zval =  1.0
     Generated using ONCVPSP code by D. R. Hamann
     Using radial grid of 1166 points,  3 beta functions with: 
                l(1) =   0
                l(2) =   0
                l(3) =   1

     atomic species   valence    mass     pseudopotential
     Fe               16.00    55.84500     Fe( 1.00)
     S                 6.00    32.06000     S ( 1.00)
     H                 1.00     1.00800     H ( 1.00)

     Starting magnetic structure 
     atomic species   magnetization
     Fe              0.065
     S               0.000
     H               0.000

     No symmetry found


                                    s                        frac. trans.

      isym =  1     identity                                     

 cryst.   s( 1) = (     1          0          0      )
                  (     0          1          0      )
                  (     0          0          1      )

 cart.    s( 1) = (  1.0000000  0.0000000  0.0000000 )
                  (  0.0000000  1.0000000  0.0000000 )
                  (  0.0000000  0.0000000  1.0000000 )


   Cartesian axes

     site n.     atom                  positions (alat units)
         1        Fe     tau(   1) = (   0.0006076  -0.0000074   0.0000273  )
         2        Fe     tau(   2) = (   0.2513239   0.3050919   0.1903997  )
         3        S      tau(   3) = (   0.1048674   0.2285577   0.0000635  )
         4        S      tau(   4) = (   0.3972633   0.3816345  -0.0000580  )
         5        S      tau(   5) = (   0.1470975   0.5335658   0.1904490  )
         6        S      tau(   6) = (   0.3546649   0.0766849   0.1905486  )
         7        Fe     tau(   7) = (   0.0005846  -0.0002519   0.3808893  )
         8        Fe     tau(   8) = (   0.2501774   0.3039327   0.5720440  )
         9        S      tau(   9) = (   0.1042658   0.2282705   0.3804082  )
        10        S      tau(  10) = (   0.3984587   0.3808371   0.3816081  )
        11        S      tau(  11) = (   0.1432935   0.5314442   0.5719049  )
        12        S      tau(  12) = (   0.3542268   0.0757000   0.5717307  )
        13        Fe     tau(  13) = (   0.0006139  -0.0003921   0.7623755  )
        14        Fe     tau(  14) = (   0.2505598   0.3031423   0.9532647  )
        15        S      tau(  15) = (   0.1038863   0.2280395   0.7628875  )
        16        S      tau(  16) = (   0.3969259   0.3760545   0.7642760  )
        17        S      tau(  17) = (   0.1478726   0.5355107   0.9543021  )
        18        S      tau(  18) = (   0.3537326   0.0754154   0.9531986  )
        19        Fe     tau(  19) = (   0.0004236  -0.0001318   1.1439482  )
        20        Fe     tau(  20) = (   0.2511696   0.3051917   1.3342963  )
        21        S      tau(  21) = (   0.1038755   0.2283655   1.1443026  )
        22        S      tau(  22) = (   0.3975437   0.3803803   1.1423935  )
        23        S      tau(  23) = (   0.1471182   0.5334448   1.3338727  )
        24        S      tau(  24) = (   0.3543705   0.0765050   1.3341741  )
        25        Fe     tau(  25) = (   0.0004644   0.6103918  -0.0002503  )
        26        Fe     tau(  26) = (   0.2503930   0.9160181   0.1897055  )
        27        S      tau(  27) = (   0.1041033   0.8391230  -0.0003163  )
        28        S      tau(  28) = (   0.3967889   0.9923567  -0.0002307  )
        29        S      tau(  29) = (   0.1468432   1.1446009   0.1903340  )
        30        S      tau(  30) = (   0.3543518   0.6871879   0.1901441  )
        31        Fe     tau(  31) = (   0.0011437   0.6102401   0.3801234  )
        32        Fe     tau(  32) = (   0.2493717   0.9162427   0.5698307  )
        33        S      tau(  33) = (   0.1019979   0.8400261   0.3795663  )
        34        S      tau(  34) = (   0.3964553   0.9934635   0.3796805  )
        35        S      tau(  35) = (   0.1466427   1.1446796   0.5718698  )
        36        S      tau(  36) = (   0.3459000   0.6913252   0.5566106  )
        37        Fe     tau(  37) = (   0.0005438   0.6097751   0.7623015  )
        38        Fe     tau(  38) = (   0.2485003   0.9159398   0.9547706  )
        39        S      tau(  39) = (   0.1027741   0.8394794   0.7622218  )
        40        S      tau(  40) = (   0.4006562   0.9907853   0.7630703  )
        41        S      tau(  41) = (   0.1466616   1.1444560   0.9530550  )
        42        S      tau(  42) = (   0.3459905   0.6880279   0.9574516  )
        43        Fe     tau(  43) = (   0.0003728   0.6103635   1.1451301  )
        44        Fe     tau(  44) = (   0.2505526   0.9156979   1.3341211  )
        45        S      tau(  45) = (   0.1022021   0.8400481   1.1443430  )
        46        S      tau(  46) = (   0.3961207   0.9923542   1.1436739  )
        47        S      tau(  47) = (   0.1467393   1.1444051   1.3342928  )
        48        S      tau(  48) = (   0.3538805   0.6870148   1.3338334  )
        49        Fe     tau(  49) = (   0.5006579  -0.0000830   0.0000258  )
        50        Fe     tau(  50) = (   0.7507745   0.3052670   0.1902060  )
        51        S      tau(  51) = (   0.6044261   0.2285749  -0.0000116  )
        52        S      tau(  52) = (   0.8970467   0.3817330  -0.0000595  )
        53        S      tau(  53) = (   0.6472329   0.5337195   0.1904710  )
        54        S      tau(  54) = (   0.8543864   0.0765460   0.1904862  )
        55        Fe     tau(  55) = (   0.5005893   0.0001141   0.3810126  )
        56        Fe     tau(  56) = (   0.7527493   0.3047570   0.5694484  )
        57        S      tau(  57) = (   0.6053313   0.2287095   0.3811734  )
        58        S      tau(  58) = (   0.8978316   0.3806184   0.3803190  )
        59        S      tau(  59) = (   0.6527464   0.5346726   0.5703769  )
        60        S      tau(  60) = (   0.8541771   0.0767288   0.5720879  )
        61        Fe     tau(  61) = (   0.5003244   0.0002515   0.7623326  )
        62        Fe     tau(  62) = (   0.7521255   0.3049941   0.9547102  )
        63        S      tau(  63) = (   0.6007631   0.2311215   0.7622084  )
        64        S      tau(  64) = (   0.8971767   0.3809158   0.7621825  )
        65        S      tau(  65) = (   0.6544842   0.5323515   0.9585996  )
        66        S      tau(  66) = (   0.8541657   0.0762691   0.9529169  )
        67        Fe     tau(  67) = (   0.5004785  -0.0001832   1.1437997  )
        68        Fe     tau(  68) = (   0.7505369   0.3051046   1.3342540  )
        69        S      tau(  69) = (   0.6046728   0.2283266   1.1437788  )
        70        S      tau(  70) = (   0.8986605   0.3806876   1.1445080  )
        71        S      tau(  71) = (   0.6472259   0.5337632   1.3339582  )
        72        S      tau(  72) = (   0.8541952   0.0763992   1.3343459  )
        73        Fe     tau(  73) = (   0.5008558   0.6103988  -0.0004967  )
        74        Fe     tau(  74) = (   0.7502907   0.9158032   0.1905044  )
        75        S      tau(  75) = (   0.6041375   0.8391946  -0.0000650  )
        76        S      tau(  76) = (   0.8965288   0.9923937  -0.0001235  )
        77        S      tau(  77) = (   0.6469030   1.1445474   0.1905258  )
        78        S      tau(  78) = (   0.8542875   0.6871803   0.1904307  )
        79        Fe     tau(  79) = (   0.5012454   0.6109398   0.3815521  )
        80        Fe     tau(  80) = (   0.7498452   0.9173797   0.5718599  )
        81        S      tau(  81) = (   0.6045643   0.8400362   0.3811817  )
        82        S      tau(  82) = (   0.8960879   0.9929462   0.3812074  )
        83        S      tau(  83) = (   0.6472910   1.1452352   0.5718831  )
        84        S      tau(  84) = (   0.8506357   0.6835947   0.5701325  )
        85        Fe     tau(  85) = (   0.7501334   0.9173331   0.9528447  )
        86        S      tau(  86) = (   0.6036293   0.8446212   0.7637010  )
        87        S      tau(  87) = (   0.8965495   0.9923169   0.7621213  )
        88        S      tau(  88) = (   0.6471044   1.1454184   0.9530728  )
        89        S      tau(  89) = (   0.8519631   0.6847668   0.9541837  )
        90        Fe     tau(  90) = (   0.5009285   0.6101651   1.1386523  )
        91        Fe     tau(  91) = (   0.7499179   0.9156398   1.3341635  )
        92        S      tau(  92) = (   0.6035081   0.8401917   1.1422517  )
        93        S      tau(  93) = (   0.8969211   0.9923750   1.1440622  )
        94        S      tau(  94) = (   0.6467151   1.1443032   1.3341294  )
        95        S      tau(  95) = (   0.8539482   0.6874257   1.3338124  )
        96        H      tau(  96) = (   0.4007819   0.6488017   0.6960276  )

   Crystallographic axes

     site n.     atom                  positions (cryst. coord.)
         1        Fe     tau(   1) = (  0.0006076 -0.0000061  0.0000179  )
         2        Fe     tau(   2) = (  0.2513239  0.2498660  0.1248813  )
         3        S      tau(   3) = (  0.1048674  0.1871856  0.0000416  )
         4        S      tau(   4) = (  0.3972633  0.3125533 -0.0000381  )
         5        S      tau(   5) = (  0.1470975  0.4369830  0.1249136  )
         6        S      tau(   6) = (  0.3546649  0.0628039  0.1249790  )
         7        Fe     tau(   7) = (  0.0005846 -0.0002063  0.2498216  )
         8        Fe     tau(   8) = (  0.2501774  0.2489167  0.3751980  )
         9        S      tau(   9) = (  0.1042658  0.1869503  0.2495060  )
        10        S      tau(  10) = (  0.3984587  0.3119003  0.2502930  )
        11        S      tau(  11) = (  0.1432935  0.4352455  0.3751068  )
        12        S      tau(  12) = (  0.3542268  0.0619972  0.3749925  )
        13        Fe     tau(  13) = (  0.0006139 -0.0003212  0.5000346  )
        14        Fe     tau(  14) = (  0.2505598  0.2482693  0.6252369  )
        15        S      tau(  15) = (  0.1038863  0.1867612  0.5003704  )
        16        S      tau(  16) = (  0.3969259  0.3079834  0.5012811  )
        17        S      tau(  17) = (  0.1478726  0.4385759  0.6259174  )
        18        S      tau(  18) = (  0.3537326  0.0617642  0.6251936  )
        19        Fe     tau(  19) = (  0.0004236 -0.0001079  0.7503044  )
        20        Fe     tau(  20) = (  0.2511696  0.2499478  0.8751518  )
        21        S      tau(  21) = (  0.1038755  0.1870282  0.7505368  )
        22        S      tau(  22) = (  0.3975437  0.3115262  0.7492847  )
        23        S      tau(  23) = (  0.1471182  0.4368839  0.8748740  )
        24        S      tau(  24) = (  0.3543705  0.0626566  0.8750717  )
        25        Fe     tau(  25) = (  0.0004644  0.4999024 -0.0001642  )
        26        Fe     tau(  26) = (  0.2503930  0.7502062  0.1244260  )
        27        S      tau(  27) = (  0.1041033  0.6872302 -0.0002075  )
        28        S      tau(  28) = (  0.3967889  0.8127264 -0.0001513  )
        29        S      tau(  29) = (  0.1468432  0.9374123  0.1248382  )
        30        S      tau(  30) = (  0.3543518  0.5627974  0.1247136  )
        31        Fe     tau(  31) = (  0.0011437  0.4997782  0.2493192  )
        32        Fe     tau(  32) = (  0.2493717  0.7503901  0.3737464  )
        33        S      tau(  33) = (  0.1019979  0.6879698  0.2489538  )
        34        S      tau(  34) = (  0.3964553  0.8136329  0.2490287  )
        35        S      tau(  35) = (  0.1466427  0.9374767  0.3750838  )
        36        S      tau(  36) = (  0.3459000  0.5661858  0.3650754  )
        37        Fe     tau(  37) = (  0.0005438  0.4993974  0.4999861  )
        38        Fe     tau(  38) = (  0.2485003  0.7501420  0.6262247  )
        39        S      tau(  39) = (  0.1027741  0.6875220  0.4999338  )
        40        S      tau(  40) = (  0.4006562  0.8114394  0.5004903  )
        41        S      tau(  41) = (  0.1466616  0.9372936  0.6250994  )
        42        S      tau(  42) = (  0.3459905  0.5634853  0.6279831  )
        43        Fe     tau(  43) = (  0.0003728  0.4998793  0.7510796  )
        44        Fe     tau(  44) = (  0.2505526  0.7499440  0.8750369  )
        45        S      tau(  45) = (  0.1022021  0.6879878  0.7505633  )
        46        S      tau(  46) = (  0.3961207  0.8127244  0.7501245  )
        47        S      tau(  47) = (  0.1467393  0.9372520  0.8751495  )
        48        S      tau(  48) = (  0.3538805  0.5626556  0.8748482  )
        49        Fe     tau(  49) = (  0.5006579 -0.0000679  0.0000169  )
        50        Fe     tau(  50) = (  0.7507745  0.2500095  0.1247542  )
        51        S      tau(  51) = (  0.6044261  0.1871997 -0.0000076  )
        52        S      tau(  52) = (  0.8970467  0.3126340 -0.0000390  )
        53        S      tau(  53) = (  0.6472329  0.4371089  0.1249281  )
        54        S      tau(  54) = (  0.8543864  0.0626901  0.1249380  )
        55        Fe     tau(  55) = (  0.5005893  0.0000934  0.2499024  )
        56        Fe     tau(  56) = (  0.7527493  0.2495918  0.3734956  )
        57        S      tau(  57) = (  0.6053313  0.1873099  0.2500079  )
        58        S      tau(  58) = (  0.8978316  0.3117212  0.2494475  )
        59        S      tau(  59) = (  0.6527464  0.4378895  0.3741046  )
        60        S      tau(  60) = (  0.8541771  0.0628399  0.3752268  )
        61        Fe     tau(  61) = (  0.5003244  0.0002059  0.5000064  )
        62        Fe     tau(  62) = (  0.7521255  0.2497860  0.6261850  )
        63        S      tau(  63) = (  0.6007631  0.1892853  0.4999250  )
        64        S      tau(  64) = (  0.8971767  0.3119648  0.4999080  )
        65        S      tau(  65) = (  0.6544842  0.4359885  0.6287361  )
        66        S      tau(  66) = (  0.8541657  0.0624633  0.6250088  )
        67        Fe     tau(  67) = (  0.5004785 -0.0001500  0.7502070  )
        68        Fe     tau(  68) = (  0.7505369  0.2498764  0.8751241  )
        69        S      tau(  69) = (  0.6046728  0.1869963  0.7501933  )
        70        S      tau(  70) = (  0.8986605  0.3117779  0.7506715  )
        71        S      tau(  71) = (  0.6472259  0.4371447  0.8749301  )
        72        S      tau(  72) = (  0.8541952  0.0625699  0.8751844  )
        73        Fe     tau(  73) = (  0.5008558  0.4999082 -0.0003258  )
        74        Fe     tau(  74) = (  0.7502907  0.7500302  0.1249499  )
        75        S      tau(  75) = (  0.6041375  0.6872888 -0.0000426  )
        76        S      tau(  76) = (  0.8965288  0.8127567 -0.0000810  )
        77        S      tau(  77) = (  0.6469030  0.9373685  0.1249640  )
        78        S      tau(  78) = (  0.8542875  0.5627911  0.1249016  )
        79        Fe     tau(  79) = (  0.5012454  0.5003512  0.2502562  )
        80        Fe     tau(  80) = (  0.7498452  0.7513213  0.3750773  )
        81        S      tau(  81) = (  0.6045643  0.6879780  0.2500133  )
        82        S      tau(  82) = (  0.8960879  0.8132092  0.2500302  )
        83        S      tau(  83) = (  0.6472910  0.9379318  0.3750925  )
        84        S      tau(  84) = (  0.8506357  0.5598546  0.3739443  )
        85        Fe     tau(  85) = (  0.7501334  0.7512832  0.6249615  )
        86        S      tau(  86) = (  0.6036293  0.6917330  0.5009040  )
        87        S      tau(  87) = (  0.8965495  0.8126938  0.4998679  )
        88        S      tau(  88) = (  0.6471044  0.9380819  0.6251111  )
        89        S      tau(  89) = (  0.8519631  0.5608146  0.6258397  )
        90        Fe     tau(  90) = (  0.5009285  0.4997168  0.7468309  )
        91        Fe     tau(  91) = (  0.7499179  0.7498963  0.8750647  )
        92        S      tau(  92) = (  0.6035081  0.6881054  0.7491916  )
        93        S      tau(  93) = (  0.8969211  0.8127414  0.7503791  )
        94        S      tau(  94) = (  0.6467151  0.9371685  0.8750424  )
        95        S      tau(  95) = (  0.8539482  0.5629922  0.8748345  )
        96        H      tau(  96) = (  0.4007819  0.5313596  0.4565177  )

     number of k points=     8  Marzari-Vanderbilt smearing, width (Ry)=  0.0150
                       cart. coord. in units 2pi/alat
        k(    1) = (   0.0000000   0.0000000   0.0000000), wk =   0.0833333
        k(    2) = (   0.0000000   0.0000000   0.2186301), wk =   0.1666667
        k(    3) = (   0.0000000  -0.4094931   0.0000000), wk =   0.0833333
        k(    4) = (   0.0000000  -0.4094931   0.2186301), wk =   0.1666667
        k(    5) = (  -0.5000000   0.0000000   0.0000000), wk =   0.0833333
        k(    6) = (  -0.5000000   0.0000000   0.2186301), wk =   0.1666667
        k(    7) = (  -0.5000000  -0.4094931   0.0000000), wk =   0.0833333
        k(    8) = (  -0.5000000  -0.4094931   0.2186301), wk =   0.1666667

                       cryst. coord.
        k(    1) = (   0.0000000   0.0000000   0.0000000), wk =   0.0833333
        k(    2) = (   0.0000000   0.0000000   0.3333333), wk =   0.1666667
        k(    3) = (   0.0000000  -0.5000000   0.0000000), wk =   0.0833333
        k(    4) = (   0.0000000  -0.5000000   0.3333333), wk =   0.1666667
        k(    5) = (  -0.5000000   0.0000000   0.0000000), wk =   0.0833333
        k(    6) = (  -0.5000000   0.0000000   0.3333333), wk =   0.1666667
        k(    7) = (  -0.5000000  -0.5000000   0.0000000), wk =   0.0833333
        k(    8) = (  -0.5000000  -0.5000000   0.3333333), wk =   0.1666667

     Dense  grid:   553421 G-vectors     FFT dimensions: (  90, 108, 128)

     Dynamical RAM for                 wfc:     558.42 MB

     Dynamical RAM for     wfc (w. buffer):    9493.18 MB

     Dynamical RAM for           str. fact:      25.33 MB

     Dynamical RAM for           local pot:       0.00 MB

     Dynamical RAM for          nlocal pot:    1810.39 MB

     Dynamical RAM for                qrad:       3.73 MB

     Dynamical RAM for          rho,v,vnew:     107.62 MB

     Dynamical RAM for               rhoin:      35.87 MB

     Dynamical RAM for            rho*nmix:     405.34 MB

     Dynamical RAM for           G-vectors:      35.89 MB

     Dynamical RAM for          h,s,v(r/c):      51.24 MB

     Dynamical RAM for          <psi|beta>:      13.84 MB

     Dynamical RAM for                 psi:    1116.84 MB

     Dynamical RAM for                hpsi:    1116.84 MB

     Dynamical RAM for      wfcinit/wfcrot:    1123.25 MB

     Estimated static dynamical RAM per process >      11.33 GB

     Estimated max dynamical RAM per process >      13.97 GB
     Generating pointlists ...
     new r_m :   0.1011 (alat units)  1.6978 (a.u.) for type    1
     new r_m :   0.0642 (alat units)  1.0788 (a.u.) for type    2
     new r_m :   0.0642 (alat units)  1.0788 (a.u.) for type    3

     Initial potential from superposition of free atoms

     starting charge     880.9860, renormalised to     881.0000
     Starting wfcs are  567 randomized atomic wfcs

     total cpu time spent up to now is       42.6 secs

     per-process dynamical memory: 10364.7 Mb

     Self-consistent Calculation
[tb_dev] Currently allocated     3.22E+01 Mbytes, locked:    0 /   3
[tb_pin] Currently allocated     0.00E+00 Mbytes, locked:    0 /   0

     iteration #  1     ecut=    60.00 Ry     beta= 0.20
     Davidson diagonalization with overlap

---- Real-time Memory Report at c_bands before calling an iterative solver
         12220 MiB given to the printing process from OS
         10150 MiB allocation reported by mallinfo(arena+hblkhd)
         22549 MiB available memory on the node where the printing process lives
     GPU memory used/free/total (MiB): 26028 / 14413 / 40441
------------------
     ethr =  1.00E-02,  avg # of iterations =  2.0

     total cpu time spent up to now is       77.2 secs

     total energy              =   -9183.20386609 Ry
     estimated scf accuracy    <      16.65206872 Ry

     total magnetization       =     1.13 Bohr mag/cell
     absolute magnetization    =    12.95 Bohr mag/cell
[tb_dev] Currently allocated     0.00E+00 Mbytes, locked:    0 /   0
[tb_pin] Currently allocated     0.00E+00 Mbytes, locked:    0 /   0

     iteration #  2     ecut=    60.00 Ry     beta= 0.20
     Davidson diagonalization with overlap

---- Real-time Memory Report at c_bands before calling an iterative solver
         12295 MiB given to the printing process from OS
         10624 MiB allocation reported by mallinfo(arena+hblkhd)
         24370 MiB available memory on the node where the printing process lives
     GPU memory used/free/total (MiB): 28812 / 11629 / 40441
------------------
     ethr =  1.89E-03,  avg # of iterations =  2.0
     Spin Component #  1
     Minimization algorithm failed to find Fermi energy: reverting to bisection
     Possible cause: smearing is larger than the electronic band-gap.

     total cpu time spent up to now is      108.0 secs

     total energy              =   -9183.34186633 Ry
     estimated scf accuracy    <       5.86936350 Ry

     total magnetization       =     1.13 Bohr mag/cell
     absolute magnetization    =    12.32 Bohr mag/cell
[tb_dev] Currently allocated     0.00E+00 Mbytes, locked:    0 /   0
[tb_pin] Currently allocated     0.00E+00 Mbytes, locked:    0 /   0

     iteration #  3     ecut=    60.00 Ry     beta= 0.20
     Davidson diagonalization with overlap

---- Real-time Memory Report at c_bands before calling an iterative solver
         12410 MiB given to the printing process from OS
         10725 MiB allocation reported by mallinfo(arena+hblkhd)
         23212 MiB available memory on the node where the printing process lives
     GPU memory used/free/total (MiB): 28818 / 11623 / 40441
------------------
     ethr =  6.66E-04,  avg # of iterations =  2.0

     total cpu time spent up to now is      140.4 secs

     total energy              =   -9183.36263867 Ry
     estimated scf accuracy    <       1.62161172 Ry

     total magnetization       =     1.13 Bohr mag/cell
     absolute magnetization    =    10.10 Bohr mag/cell
[tb_dev] Currently allocated     0.00E+00 Mbytes, locked:    0 /   0
[tb_pin] Currently allocated     0.00E+00 Mbytes, locked:    0 /   0

     iteration #  4     ecut=    60.00 Ry     beta= 0.20
     Davidson diagonalization with overlap

---- Real-time Memory Report at c_bands before calling an iterative solver
         12490 MiB given to the printing process from OS
         10759 MiB allocation reported by mallinfo(arena+hblkhd)
         24453 MiB available memory on the node where the printing process lives
     GPU memory used/free/total (MiB): 28818 / 11623 / 40441
------------------
     ethr =  1.84E-04,  avg # of iterations =  3.5

     total cpu time spent up to now is      196.6 secs

     total energy              =   -9183.49147223 Ry
     estimated scf accuracy    <       0.17242057 Ry

     total magnetization       =     1.13 Bohr mag/cell
     absolute magnetization    =     5.86 Bohr mag/cell
[tb_dev] Currently allocated     0.00E+00 Mbytes, locked:    0 /   0
[tb_pin] Currently allocated     0.00E+00 Mbytes, locked:    0 /   0

     iteration #  5     ecut=    60.00 Ry     beta= 0.20
     Davidson diagonalization with overlap

---- Real-time Memory Report at c_bands before calling an iterative solver
         12559 MiB given to the printing process from OS
         10793 MiB allocation reported by mallinfo(arena+hblkhd)
         24714 MiB available memory on the node where the printing process lives
     GPU memory used/free/total (MiB): 28818 / 11622 / 40441
------------------
     c_bands:  1 eigenvalues not converged
     ethr =  1.96E-05,  avg # of iterations = 10.8

     total cpu time spent up to now is      302.2 secs

     total energy              =   -9183.52705030 Ry
     estimated scf accuracy    <       0.03655616 Ry

     total magnetization       =     1.13 Bohr mag/cell
     absolute magnetization    =     4.27 Bohr mag/cell
[tb_dev] Currently allocated     0.00E+00 Mbytes, locked:    0 /   0
[tb_pin] Currently allocated     0.00E+00 Mbytes, locked:    0 /   0

     iteration #  6     ecut=    60.00 Ry     beta= 0.20
     Davidson diagonalization with overlap

---- Real-time Memory Report at c_bands before calling an iterative solver
         12633 MiB given to the printing process from OS
         10827 MiB allocation reported by mallinfo(arena+hblkhd)
         24861 MiB available memory on the node where the printing process lives
     GPU memory used/free/total (MiB): 28820 / 11620 / 40441
------------------
     ethr =  4.15E-06,  avg # of iterations =  3.8

     total cpu time spent up to now is      329.9 secs

     total energy              =   -9183.53048226 Ry
     estimated scf accuracy    <       0.01772696 Ry

     total magnetization       =     1.13 Bohr mag/cell
     absolute magnetization    =     3.80 Bohr mag/cell
[tb_dev] Currently allocated     0.00E+00 Mbytes, locked:    0 /   0
[tb_pin] Currently allocated     0.00E+00 Mbytes, locked:    0 /   0

     iteration #  7     ecut=    60.00 Ry     beta= 0.20
     Davidson diagonalization with overlap

---- Real-time Memory Report at c_bands before calling an iterative solver
         12687 MiB given to the printing process from OS
         10860 MiB allocation reported by mallinfo(arena+hblkhd)
         24696 MiB available memory on the node where the printing process lives
     GPU memory used/free/total (MiB): 28820 / 11620 / 40441
------------------
     ethr =  2.01E-06,  avg # of iterations =  1.8
     Spin Component #  2
     Minimization algorithm failed to find Fermi energy: reverting to bisection
     Possible cause: smearing is larger than the electronic band-gap.

     total cpu time spent up to now is      357.5 secs

     total energy              =   -9183.53165169 Ry
     estimated scf accuracy    <       0.00613389 Ry

     total magnetization       =     1.13 Bohr mag/cell
     absolute magnetization    =     3.01 Bohr mag/cell
[tb_dev] Currently allocated     0.00E+00 Mbytes, locked:    0 /   0
[tb_pin] Currently allocated     0.00E+00 Mbytes, locked:    0 /   0

     iteration #  8     ecut=    60.00 Ry     beta= 0.20
     Davidson diagonalization with overlap

---- Real-time Memory Report at c_bands before calling an iterative solver
         12754 MiB given to the printing process from OS
         10894 MiB allocation reported by mallinfo(arena+hblkhd)
         23559 MiB available memory on the node where the printing process lives
     GPU memory used/free/total (MiB): 28820 / 11620 / 40441
------------------
     ethr =  6.96E-07,  avg # of iterations =  3.7
     Spin Component #  2
     Minimization algorithm failed to find Fermi energy: reverting to bisection
     Possible cause: smearing is larger than the electronic band-gap.

     total cpu time spent up to now is      390.6 secs

     total energy              =   -9183.53313635 Ry
     estimated scf accuracy    <       0.00051865 Ry

     total magnetization       =     1.13 Bohr mag/cell
     absolute magnetization    =     2.26 Bohr mag/cell
[tb_dev] Currently allocated     0.00E+00 Mbytes, locked:    0 /   0
[tb_pin] Currently allocated     0.00E+00 Mbytes, locked:    0 /   0

     iteration #  9     ecut=    60.00 Ry     beta= 0.20
     Davidson diagonalization with overlap

---- Real-time Memory Report at c_bands before calling an iterative solver
         12813 MiB given to the printing process from OS
         10928 MiB allocation reported by mallinfo(arena+hblkhd)
         24032 MiB available memory on the node where the printing process lives
     GPU memory used/free/total (MiB): 28820 / 11620 / 40441
------------------
     ethr =  5.89E-08,  avg # of iterations =  6.2
     Spin Component #  2
     Minimization algorithm failed to find Fermi energy: reverting to bisection
     Possible cause: smearing is larger than the electronic band-gap.

     total cpu time spent up to now is      432.4 secs

     total energy              =   -9183.53330558 Ry
     estimated scf accuracy    <       0.00042660 Ry

     total magnetization       =     1.13 Bohr mag/cell
     absolute magnetization    =     2.15 Bohr mag/cell
[tb_dev] Currently allocated     0.00E+00 Mbytes, locked:    0 /   0
[tb_pin] Currently allocated     0.00E+00 Mbytes, locked:    0 /   0

     iteration # 10     ecut=    60.00 Ry     beta= 0.20
     Davidson diagonalization with overlap

---- Real-time Memory Report at c_bands before calling an iterative solver
         12881 MiB given to the printing process from OS
         10962 MiB allocation reported by mallinfo(arena+hblkhd)
         20496 MiB available memory on the node where the printing process lives
     GPU memory used/free/total (MiB): 28840 / 11600 / 40441
------------------
     ethr =  4.84E-08,  avg # of iterations =  2.1
     Spin Component #  2
     Minimization algorithm failed to find Fermi energy: reverting to bisection
     Possible cause: smearing is larger than the electronic band-gap.

     total cpu time spent up to now is      494.7 secs

     total energy              =   -9183.53339656 Ry
     estimated scf accuracy    <       0.00008723 Ry

     total magnetization       =     1.13 Bohr mag/cell
     absolute magnetization    =     2.08 Bohr mag/cell
[tb_dev] Currently allocated     0.00E+00 Mbytes, locked:    0 /   0
[tb_pin] Currently allocated     0.00E+00 Mbytes, locked:    0 /   0

     iteration # 11     ecut=    60.00 Ry     beta= 0.20
     Davidson diagonalization with overlap

---- Real-time Memory Report at c_bands before calling an iterative solver
         12948 MiB given to the printing process from OS
         10996 MiB allocation reported by mallinfo(arena+hblkhd)
         22965 MiB available memory on the node where the printing process lives
     GPU memory used/free/total (MiB): 28840 / 11600 / 40441
------------------
     ethr =  9.90E-09,  avg # of iterations =  4.6
     Spin Component #  2
     Minimization algorithm failed to find Fermi energy: reverting to bisection
     Possible cause: smearing is larger than the electronic band-gap.

     total cpu time spent up to now is      576.2 secs

     total energy              =   -9183.53342383 Ry
     estimated scf accuracy    <       0.00002407 Ry

     total magnetization       =     1.13 Bohr mag/cell
     absolute magnetization    =     2.07 Bohr mag/cell
[tb_dev] Currently allocated     0.00E+00 Mbytes, locked:    0 /   0
[tb_pin] Currently allocated     0.00E+00 Mbytes, locked:    0 /   0

     iteration # 12     ecut=    60.00 Ry     beta= 0.20
     Davidson diagonalization with overlap

---- Real-time Memory Report at c_bands before calling an iterative solver
         13016 MiB given to the printing process from OS
         11029 MiB allocation reported by mallinfo(arena+hblkhd)
         22621 MiB available memory on the node where the printing process lives
     GPU memory used/free/total (MiB): 28840 / 11600 / 40441
------------------
     ethr =  2.73E-09,  avg # of iterations =  3.3

     total cpu time spent up to now is      605.7 secs

     total energy              =   -9183.53342864 Ry
     estimated scf accuracy    <       0.00001276 Ry

     total magnetization       =     1.13 Bohr mag/cell
     absolute magnetization    =     2.08 Bohr mag/cell
[tb_dev] Currently allocated     0.00E+00 Mbytes, locked:    0 /   0
[tb_pin] Currently allocated     0.00E+00 Mbytes, locked:    0 /   0

     iteration # 13     ecut=    60.00 Ry     beta= 0.20
     Davidson diagonalization with overlap

---- Real-time Memory Report at c_bands before calling an iterative solver
         13083 MiB given to the printing process from OS
         11063 MiB allocation reported by mallinfo(arena+hblkhd)
         22093 MiB available memory on the node where the printing process lives
     GPU memory used/free/total (MiB): 28840 / 11600 / 40441
------------------
     ethr =  1.45E-09,  avg # of iterations =  4.3

     total cpu time spent up to now is      636.4 secs

     total energy              =   -9183.53343503 Ry
     estimated scf accuracy    <       0.00000436 Ry

     total magnetization       =     1.13 Bohr mag/cell
     absolute magnetization    =     2.09 Bohr mag/cell
[tb_dev] Currently allocated     0.00E+00 Mbytes, locked:    0 /   0
[tb_pin] Currently allocated     0.00E+00 Mbytes, locked:    0 /   0

     iteration # 14     ecut=    60.00 Ry     beta= 0.20
     Davidson diagonalization with overlap

---- Real-time Memory Report at c_bands before calling an iterative solver
         13150 MiB given to the printing process from OS
         11097 MiB allocation reported by mallinfo(arena+hblkhd)
         22220 MiB available memory on the node where the printing process lives
     GPU memory used/free/total (MiB): 28840 / 11600 / 40441
------------------
     ethr =  4.95E-10,  avg # of iterations =  3.4
     Spin Component #  2
     Minimization algorithm failed to find Fermi energy: reverting to bisection
     Possible cause: smearing is larger than the electronic band-gap.

     total cpu time spent up to now is      664.8 secs

     total energy              =   -9183.53343608 Ry
     estimated scf accuracy    <       0.00000148 Ry

     total magnetization       =     1.13 Bohr mag/cell
     absolute magnetization    =     2.09 Bohr mag/cell
[tb_dev] Currently allocated     0.00E+00 Mbytes, locked:    0 /   0
[tb_pin] Currently allocated     0.00E+00 Mbytes, locked:    0 /   0

     iteration # 15     ecut=    60.00 Ry     beta= 0.20
     Davidson diagonalization with overlap

---- Real-time Memory Report at c_bands before calling an iterative solver
         13150 MiB given to the printing process from OS
         11097 MiB allocation reported by mallinfo(arena+hblkhd)
         21582 MiB available memory on the node where the printing process lives
     GPU memory used/free/total (MiB): 28840 / 11600 / 40441
------------------
     ethr =  1.68E-10,  avg # of iterations =  4.1

     total cpu time spent up to now is      699.7 secs

     total energy              =   -9183.53343643 Ry
     estimated scf accuracy    <       0.00000091 Ry

     total magnetization       =     1.13 Bohr mag/cell
     absolute magnetization    =     2.10 Bohr mag/cell
[tb_dev] Currently allocated     0.00E+00 Mbytes, locked:    0 /   0
[tb_pin] Currently allocated     0.00E+00 Mbytes, locked:    0 /   0

     iteration # 16     ecut=    60.00 Ry     beta= 0.20
     Davidson diagonalization with overlap

---- Real-time Memory Report at c_bands before calling an iterative solver
         13151 MiB given to the printing process from OS
         11097 MiB allocation reported by mallinfo(arena+hblkhd)
         21974 MiB available memory on the node where the printing process lives
     GPU memory used/free/total (MiB): 28840 / 11600 / 40441
------------------
     ethr =  1.04E-10,  avg # of iterations =  4.8
     Spin Component #  2
     Minimization algorithm failed to find Fermi energy: reverting to bisection
     Possible cause: smearing is larger than the electronic band-gap.

     total cpu time spent up to now is      777.2 secs

     total energy              =   -9183.53343696 Ry
     estimated scf accuracy    <       0.00000028 Ry

     total magnetization       =     1.13 Bohr mag/cell
     absolute magnetization    =     2.10 Bohr mag/cell
[tb_dev] Currently allocated     0.00E+00 Mbytes, locked:    0 /   0
[tb_pin] Currently allocated     0.00E+00 Mbytes, locked:    0 /   0

     iteration # 17     ecut=    60.00 Ry     beta= 0.20
     Davidson diagonalization with overlap

---- Real-time Memory Report at c_bands before calling an iterative solver
         13151 MiB given to the printing process from OS
         11097 MiB allocation reported by mallinfo(arena+hblkhd)
         21851 MiB available memory on the node where the printing process lives
     GPU memory used/free/total (MiB): 28840 / 11600 / 40441
------------------
     ethr =  3.15E-11,  avg # of iterations =  2.0
     Spin Component #  2
     Minimization algorithm failed to find Fermi energy: reverting to bisection
     Possible cause: smearing is larger than the electronic band-gap.

     total cpu time spent up to now is      840.8 secs

     total energy              =   -9183.53343701 Ry
     estimated scf accuracy    <       0.00000016 Ry

     total magnetization       =     1.13 Bohr mag/cell
     absolute magnetization    =     2.10 Bohr mag/cell
[tb_dev] Currently allocated     0.00E+00 Mbytes, locked:    0 /   0
[tb_pin] Currently allocated     0.00E+00 Mbytes, locked:    0 /   0

     iteration # 18     ecut=    60.00 Ry     beta= 0.20
     Davidson diagonalization with overlap

---- Real-time Memory Report at c_bands before calling an iterative solver
         13151 MiB given to the printing process from OS
         11097 MiB allocation reported by mallinfo(arena+hblkhd)
         21366 MiB available memory on the node where the printing process lives
     GPU memory used/free/total (MiB): 28840 / 11600 / 40441
------------------
     ethr =  1.87E-11,  avg # of iterations =  5.3

     total cpu time spent up to now is      870.9 secs

     total energy              =   -9183.53343708 Ry
     estimated scf accuracy    <       0.00000005 Ry

     total magnetization       =     1.13 Bohr mag/cell
     absolute magnetization    =     2.10 Bohr mag/cell
[tb_dev] Currently allocated     0.00E+00 Mbytes, locked:    0 /   0
[tb_pin] Currently allocated     0.00E+00 Mbytes, locked:    0 /   0

     iteration # 19     ecut=    60.00 Ry     beta= 0.20
     Davidson diagonalization with overlap

---- Real-time Memory Report at c_bands before calling an iterative solver
         13151 MiB given to the printing process from OS
         11097 MiB allocation reported by mallinfo(arena+hblkhd)
         21361 MiB available memory on the node where the printing process lives
     GPU memory used/free/total (MiB): 28852 / 11588 / 40441
------------------
     ethr =  5.41E-12,  avg # of iterations =  5.1
     Spin Component #  2
     Minimization algorithm failed to find Fermi energy: reverting to bisection
     Possible cause: smearing is larger than the electronic band-gap.

     total cpu time spent up to now is      904.3 secs

     total energy              =   -9183.53343712 Ry
     estimated scf accuracy    <       0.00000002 Ry

     total magnetization       =     1.13 Bohr mag/cell
     absolute magnetization    =     2.10 Bohr mag/cell
[tb_dev] Currently allocated     0.00E+00 Mbytes, locked:    0 /   0
[tb_pin] Currently allocated     0.00E+00 Mbytes, locked:    0 /   0

     iteration # 20     ecut=    60.00 Ry     beta= 0.20
     Davidson diagonalization with overlap

---- Real-time Memory Report at c_bands before calling an iterative solver
         13151 MiB given to the printing process from OS
         11097 MiB allocation reported by mallinfo(arena+hblkhd)
         21330 MiB available memory on the node where the printing process lives
     GPU memory used/free/total (MiB): 28852 / 11588 / 40441
------------------
     ethr =  1.85E-12,  avg # of iterations =  2.3
     Spin Component #  2
     Minimization algorithm failed to find Fermi energy: reverting to bisection
     Possible cause: smearing is larger than the electronic band-gap.
 
     Magnetic moment per site  (integrated on atomic sphere of radius R)
     atom   1 (R=0.101)  charge= 13.8406  magn= -0.0042
     atom   2 (R=0.101)  charge= 13.8395  magn=  0.0016
     atom   3 (R=0.064)  charge=  0.9785  magn=  0.0006
     atom   4 (R=0.064)  charge=  0.9797  magn=  0.0007
     atom   5 (R=0.064)  charge=  0.9794  magn=  0.0009
     atom   6 (R=0.064)  charge=  0.9793  magn=  0.0003
     atom   7 (R=0.101)  charge= 13.8405  magn= -0.0144
     atom   8 (R=0.101)  charge= 13.8342  magn=  0.0655
     atom   9 (R=0.064)  charge=  0.9794  magn=  0.0007
     atom  10 (R=0.064)  charge=  0.9789  magn= -0.0003
     atom  11 (R=0.064)  charge=  0.9790  magn= -0.0003
     atom  12 (R=0.064)  charge=  0.9793  magn=  0.0001
     atom  13 (R=0.101)  charge= 13.8431  magn= -0.0235
     atom  14 (R=0.101)  charge= 13.8390  magn=  0.0651
     atom  15 (R=0.064)  charge=  0.9790  magn= -0.0005
     atom  16 (R=0.064)  charge=  0.9828  magn=  0.0097
     atom  17 (R=0.064)  charge=  0.9789  magn= -0.0008
     atom  18 (R=0.064)  charge=  0.9795  magn= -0.0001
     atom  19 (R=0.101)  charge= 13.8411  magn= -0.0146
     atom  20 (R=0.101)  charge= 13.8399  magn= -0.0057
     atom  21 (R=0.064)  charge=  0.9798  magn=  0.0002
     atom  22 (R=0.064)  charge=  0.9793  magn= -0.0015
     atom  23 (R=0.064)  charge=  0.9794  magn=  0.0006
     atom  24 (R=0.064)  charge=  0.9792  magn=  0.0004
     atom  25 (R=0.101)  charge= 13.8386  magn= -0.0024
     atom  26 (R=0.101)  charge= 13.8409  magn= -0.0117
     atom  27 (R=0.064)  charge=  0.9792  magn=  0.0003
     atom  28 (R=0.064)  charge=  0.9796  magn=  0.0005
     atom  29 (R=0.064)  charge=  0.9795  magn=  0.0004
     atom  30 (R=0.064)  charge=  0.9790  magn= -0.0001
     atom  31 (R=0.101)  charge= 13.8428  magn=  0.0020
     atom  32 (R=0.101)  charge= 13.8455  magn= -0.0166
     atom  33 (R=0.064)  charge=  0.9794  magn=  0.0003
     atom  34 (R=0.064)  charge=  0.9792  magn=  0.0001
     atom  35 (R=0.064)  charge=  0.9797  magn=  0.0005
     atom  36 (R=0.064)  charge=  0.9870  magn=  0.0001
     atom  37 (R=0.101)  charge= 13.8361  magn= -0.0134
     atom  38 (R=0.101)  charge= 13.8405  magn=  0.0503
     atom  39 (R=0.064)  charge=  0.9792  magn=  0.0002
     atom  40 (R=0.064)  charge=  0.9769  magn=  0.0003
     atom  41 (R=0.064)  charge=  0.9799  magn=  0.0005
     atom  42 (R=0.064)  charge=  0.9829  magn=  0.0112
     atom  43 (R=0.101)  charge= 13.8440  magn=  0.0379
     atom  44 (R=0.101)  charge= 13.8412  magn= -0.0211
     atom  45 (R=0.064)  charge=  0.9796  magn=  0.0002
     atom  46 (R=0.064)  charge=  0.9792  magn= -0.0007
     atom  47 (R=0.064)  charge=  0.9794  magn=  0.0006
     atom  48 (R=0.064)  charge=  0.9788  magn= -0.0005
     atom  49 (R=0.101)  charge= 13.8406  magn= -0.0035
     atom  50 (R=0.101)  charge= 13.8419  magn= -0.0173
     atom  51 (R=0.064)  charge=  0.9790  magn=  0.0005
     atom  52 (R=0.064)  charge=  0.9796  magn=  0.0003
     atom  53 (R=0.064)  charge=  0.9790  magn= -0.0000
     atom  54 (R=0.064)  charge=  0.9792  magn=  0.0004
     atom  55 (R=0.101)  charge= 13.8412  magn= -0.0162
     atom  56 (R=0.101)  charge= 13.8393  magn=  0.0425
     atom  57 (R=0.064)  charge=  0.9787  magn= -0.0002
     atom  58 (R=0.064)  charge=  0.9795  magn=  0.0002
     atom  59 (R=0.064)  charge=  0.9819  magn=  0.0085
     atom  60 (R=0.064)  charge=  0.9798  magn=  0.0004
     atom  61 (R=0.101)  charge= 13.8408  magn=  0.0176
     atom  62 (R=0.101)  charge= 13.8399  magn=  0.0940
     atom  63 (R=0.064)  charge=  0.9765  magn=  0.0002
     atom  64 (R=0.064)  charge=  0.9791  magn= -0.0000
     atom  65 (R=0.064)  charge=  0.9830  magn=  0.0183
     atom  66 (R=0.064)  charge=  0.9796  magn=  0.0005
     atom  67 (R=0.101)  charge= 13.8409  magn= -0.0241
     atom  68 (R=0.101)  charge= 13.8411  magn= -0.0199
     atom  69 (R=0.064)  charge=  0.9786  magn= -0.0009
     atom  70 (R=0.064)  charge=  0.9793  magn=  0.0003
     atom  71 (R=0.064)  charge=  0.9791  magn= -0.0005
     atom  72 (R=0.064)  charge=  0.9792  magn=  0.0006
     atom  73 (R=0.101)  charge= 13.8391  magn= -0.0327
     atom  74 (R=0.101)  charge= 13.8405  magn= -0.0052
     atom  75 (R=0.064)  charge=  0.9792  magn=  0.0007
     atom  76 (R=0.064)  charge=  0.9792  magn=  0.0006
     atom  77 (R=0.064)  charge=  0.9795  magn=  0.0004
     atom  78 (R=0.064)  charge=  0.9791  magn=  0.0003
     atom  79 (R=0.101)  charge= 13.8366  magn=  0.0992
     atom  80 (R=0.101)  charge= 13.8356  magn=  0.0747
     atom  81 (R=0.064)  charge=  0.9795  magn= -0.0002
     atom  82 (R=0.064)  charge=  0.9796  magn=  0.0009
     atom  83 (R=0.064)  charge=  0.9796  magn= -0.0001
     atom  84 (R=0.064)  charge=  0.9793  magn=  0.0001
     atom  85 (R=0.101)  charge= 13.8384  magn=  0.0545
     atom  86 (R=0.064)  charge=  0.9833  magn=  0.0093
     atom  87 (R=0.064)  charge=  0.9794  magn= -0.0002
     atom  88 (R=0.064)  charge=  0.9797  magn= -0.0001
     atom  89 (R=0.064)  charge=  0.9789  magn= -0.0004
     atom  90 (R=0.101)  charge= 13.8120  magn=  0.4365
     atom  91 (R=0.101)  charge= 13.8398  magn= -0.0022
     atom  92 (R=0.064)  charge=  0.9797  magn= -0.0013
     atom  93 (R=0.064)  charge=  0.9801  magn=  0.0005
     atom  94 (R=0.064)  charge=  0.9796  magn=  0.0004
     atom  95 (R=0.064)  charge=  0.9794  magn=  0.0003
     atom  96 (R=0.064)  charge=  0.6525  magn=  0.0008

     total cpu time spent up to now is      933.7 secs

     End of self-consistent calculation

 ------ SPIN UP ------------


          k = 0.0000 0.0000 0.0000 ( 69157 PWs)   bands (ev):

   -75.3718 -75.0668 -74.9248 -74.9212 -74.9007 -74.9005 -74.8996 -74.8894
   -74.8828 -74.8783 -74.8775 -74.8752 -74.8737 -74.8729 -74.8724 -74.8703
   -74.8688 -74.8677 -74.8659 -74.8654 -74.8597 -74.8594 -74.8590 -74.8578
   -74.8560 -74.8491 -74.8466 -74.8450 -74.8442 -74.8346 -74.8254 -41.4386
   -41.4154 -41.1750 -41.0826 -41.0540 -41.0119 -41.0039 -40.9809 -40.9671
   -40.9503 -40.9482 -40.9481 -40.9461 -40.9443 -40.9415 -40.9407 -40.9397
   -40.9382 -40.9367 -40.9339 -40.9337 -40.9333 -40.9322 -40.9311 -40.9305
   -40.9300 -40.9292 -40.9252 -40.9218 -40.9166 -40.9136 -40.9114 -40.9087
   -40.9074 -40.8828 -40.8709 -40.8529 -40.8491 -40.8482 -40.8399 -40.8316
   -40.8219 -40.8189 -40.8172 -40.8147 -40.8142 -40.8127 -40.8106 -40.8093
   -40.8078 -40.8039 -40.8037 -40.8026 -40.8015 -40.8014 -40.7999 -40.7997
   -40.7984 -40.7976 -40.7954 -40.7946 -40.7917 -40.7909 -40.7891 -40.7824
   -40.7822 -40.7812 -40.7807 -40.7802 -40.7781 -40.7753 -40.7747 -40.7733
   -40.7718 -40.7716 -40.7709 -40.7684 -40.7670 -40.7653 -40.7595 -40.7579
   -40.7575 -40.7571 -40.7552 -40.7543 -40.7507 -40.7470 -40.7461 -40.7402
   -40.7392 -40.7364 -40.7331 -40.7224  -4.3798  -3.8919  -3.8193  -3.5070
    -3.4566  -3.1722  -3.0561  -3.0345  -3.0215  -2.9897  -2.9191  -2.7557
    -2.6561  -2.6429  -2.6378  -2.6202  -2.5769  -2.5605  -2.5482  -2.4900
    -2.4797  -2.3826  -2.3527  -2.3373  -2.3183  -2.2502  -2.2293  -2.1031
    -2.0971  -2.0131  -1.9866  -1.9563  -1.3745  -1.3388  -1.0053  -0.9450
    -0.8845  -0.8398  -0.6768  -0.6245  -0.5283  -0.4597  -0.4448  -0.4207
    -0.3438  -0.3397  -0.2703  -0.2110  -0.1223  -0.0228   0.0840   0.0871
     0.0997   0.2703   0.2932   0.3067   0.3282   0.3961   0.4306   0.4514
     0.4750   0.5484   0.5930   0.6954   4.5883   4.7013   4.7194   4.7869
     5.1219   5.1567   5.1615   5.1784   5.2057   5.2330   5.2588   5.2651
     5.2676   5.2875   5.2990   5.3209   5.3956   5.4633   5.5462   5.6522
     5.6763   5.6945   5.7215   5.7682   5.8494   5.8849   5.8955   5.9107
     5.9190   5.9384   5.9500   5.9698   5.9813   6.0068   6.0269   6.0722
     6.0986   6.2030   6.2339   6.3006   6.5048   6.5720   6.5925   6.6118
     6.7088   6.7227   6.7895   6.8053   6.8202   6.8237   6.8278   6.8653
     6.9577   6.9762   7.0206   7.0647   7.1467   7.1501   7.1601   7.1842
     7.2023   7.2135   7.2344   7.2498   7.2816   7.3509   7.3767   7.4227
     7.6433   7.7744   7.7997   7.8087   7.8299   7.8356   7.8401   7.8494
     7.8546   7.8608   7.8691   7.8759   7.8829   7.8918   7.8981   7.9039
     7.9154   7.9514   7.9973   8.0604   8.1396   8.2024   8.2122   8.2390
     8.2856   8.3002   8.3032   8.3521   8.3561   8.3851   8.4437   8.4681
     8.4917   8.5029   8.5189   8.5248   8.5325   8.5581   8.5902   8.6118
     8.6355   8.6386   8.6698   8.6801   8.6812   8.6911   8.7373   8.7470
     8.7674   8.7915   8.7987   8.8155   8.8407   8.8889   8.9108   8.9432
     8.9499   8.9850   9.0213   9.1166   9.2169   9.3285   9.3700   9.3919
     9.4198   9.4546   9.4790   9.4897   9.4937   9.5409   9.5814   9.5884
     9.5966   9.6090   9.6151   9.6173   9.6540   9.7175   9.7411   9.8510
     9.9616   9.9769  10.1701  10.1980  10.2096  10.2326  10.3601  10.3740
    10.4084  10.4315  10.4556  10.6287  10.6644  10.6985  10.7071  10.7300
    10.7545  10.7856  10.8178  10.8361  10.8455  10.8548  10.8578  10.8765
    10.8852  10.8927  10.8946  10.9103  10.9484  10.9542  10.9647  11.0000
    11.0186  11.0441  11.1034  11.1371  11.1557  11.1707  11.1819  11.1939
    11.1983  11.2471  11.2609  11.2661  11.2704  11.2839  11.2874  11.2901
    11.2977  11.3003  11.3226  11.3361  11.3584  11.3668  11.3710  11.3771
    11.3816  11.3956  11.4006  11.4045  11.4281  11.4517  11.4706  11.4906
    11.4958  11.5153  11.5264  11.5827  11.6096  11.6187  11.6320  11.6682
    11.6763  11.6810  11.7035  11.7239  11.7260  11.7330  11.7627  11.7823
    11.7879  11.8683  11.9054  11.9082  11.9140  11.9487  11.9507  11.9597
    11.9738  11.9841  11.9968  12.0349  12.0691  12.0857  12.0930  12.1141
    12.1366  12.1779  12.1988  12.2421  12.2694  12.2762  12.2988  12.3116
    12.3486  13.1261  13.1372  13.3054  13.3360  13.3454  13.3588  13.3686
    13.4089  13.4333  13.6053  13.6198  13.6415  13.6486  13.6613  13.6910
    13.7086  13.7261  13.7673  13.7889  13.8078  13.8167  13.8331  13.8392
    13.8550  13.8692  13.8979  13.9185  13.9309  13.9335  13.9475  13.9592
    13.9682  13.9998  14.0527  14.0841  14.1203  14.1371  14.1433  14.1513
    14.1566  14.1654  14.1744  14.1946  14.2251  14.2322  14.2773  14.3016
    14.3126  14.3232  14.3509  14.3628  14.3998  14.4190  14.4369  14.4817
    14.5315  14.5363  14.5469  14.6454  14.6585  14.7202  14.7262  14.7552
    14.7732  14.7808  14.7860  14.8058  14.8286  14.8403  14.8804  14.8892
    14.9237  14.9408  14.9611  14.9878  14.9992  15.0561  15.0659  15.1594
    15.1753  15.2410  15.2546  15.2723  15.3695  15.3900  15.4380  15.4881
    15.5002

     occupation numbers 
     1.0000   1.0000   1.0000   1.0000   1.0000   1.0000   1.0000   1.0000
     1.0000   1.0000   1.0000   1.0000   1.0000   1.0000   1.0000   1.0000
     1.0000   1.0000   1.0000   1.0000   1.0000   1.0000   1.0000   1.0000
     1.0000   1.0000   1.0000   1.0000   1.0000   1.0000   1.0000   1.0000
     1.0000   1.0000   1.0000   1.0000   1.0000   1.0000   1.0000   1.0000
     1.0000   1.0000   1.0000   1.0000   1.0000   1.0000   1.0000   1.0000
     1.0000   1.0000   1.0000   1.0000   1.0000   1.0000   1.0000   1.0000
     1.0000   1.0000   1.0000   1.0000   1.0000   1.0000   1.0000   1.0000
     1.0000   1.0000   1.0000   1.0000   1.0000   1.0000   1.0000   1.0000
     1.0000   1.0000   1.0000   1.0000   1.0000   1.0000   1.0000   1.0000
     1.0000   1.0000   1.0000   1.0000   1.0000   1.0000   1.0000   1.0000
     1.0000   1.0000   1.0000   1.0000   1.0000   1.0000   1.0000   1.0000
     1.0000   1.0000   1.0000   1.0000   1.0000   1.0000   1.0000   1.0000
     1.0000   1.0000   1.0000   1.0000   1.0000   1.0000   1.0000   1.0000
     1.0000   1.0000   1.0000   1.0000   1.0000   1.0000   1.0000   1.0000
     1.0000   1.0000   1.0000   1.0000   1.0000   1.0000   1.0000   1.0000
     1.0000   1.0000   1.0000   1.0000   1.0000   1.0000   1.0000   1.0000
     1.0000   1.0000   1.0000   1.0000   1.0000   1.0000   1.0000   1.0000
     1.0000   1.0000   1.0000   1.0000   1.0000   1.0000   1.0000   1.0000
     1.0000   1.0000   1.0000   1.0000   1.0000   1.0000   1.0000   1.0000
     1.0000   1.0000   1.0000   1.0000   1.0000   1.0000   1.0000   1.0000
     1.0000   1.0000   1.0000   1.0000   1.0000   1.0000   1.0000   1.0000
     1.0000   1.0000   1.0000   1.0000   1.0000   1.0000   1.0000   1.0000
     1.0000   1.0000   1.0000   1.0000   1.0000   1.0000   1.0000   1.0000
     1.0000   1.0000   1.0000   1.0000   1.0000   1.0000   1.0000   1.0000
     1.0000   1.0000   1.0000   1.0000   1.0000   1.0000   1.0000   1.0000
     1.0000   1.0000   1.0000   1.0000   1.0000   1.0000   1.0000   1.0000
     1.0000   1.0000   1.0000   1.0000   1.0000   1.0000   1.0000   1.0000
     1.0000   1.0000   1.0000   1.0000   1.0000   1.0000   1.0000   1.0000
     1.0000   1.0000   1.0000   1.0000   1.0000   1.0000   1.0000   1.0000
     1.0000   1.0000   1.0000   1.0000   1.0000   1.0000   1.0000   1.0000
     1.0000   1.0000   1.0000   1.0000   1.0000   1.0000   1.0000   1.0000
     1.0000   1.0000   1.0000   1.0000   1.0000   1.0000   1.0000   1.0000
     1.0000   1.0000   1.0000   1.0000   1.0000   1.0000   1.0000   1.0000
     1.0000   1.0000   1.0000   1.0000   1.0000   1.0000   1.0000   1.0000
     1.0000   1.0000   1.0000   1.0000   1.0000   1.0000   1.0000   1.0000
     1.0000   1.0000   1.0000   1.0000   1.0000   1.0000   1.0000   1.0000
     1.0000   1.0000   1.0000   1.0000   1.0000   1.0000   1.0000   1.0000
     1.0000   1.0000   1.0000   1.0000   1.0000   1.0000   1.0000   1.0000
     1.0000   1.0000   1.0000   1.0000   1.0000   1.0000   1.0000   1.0000
     1.0000   1.0000   1.0000   1.0000   1.0000   1.0000   1.0000   1.0000
     1.0000   1.0000   1.0000   1.0000   1.0000   1.0000   1.0000   1.0000
     1.0000   1.0000   1.0000   1.0000   1.0000   1.0000   1.0000   1.0000
     1.0000   1.0000   1.0000   1.0000   1.0000   1.0000   1.0000   1.0000
     1.0000   1.0000   1.0000   1.0000   1.0000   1.0000   1.0000   1.0000
     1.0000   1.0000   1.0000   1.0000   1.0000   1.0000   1.0000   1.0000
     1.0000   1.0000   1.0000   1.0000   1.0000   1.0000   1.0000   1.0000
     1.0000   1.0000   1.0000   1.0000   1.0000   1.0000   1.0000   1.0000
     1.0000   1.0000   1.0000   1.0000   1.0000   1.0000   1.0000   1.0000
     1.0000   1.0000   1.0000   1.0000   1.0000   1.0000   1.0000   1.0000
     1.0000   1.0000   1.0000   1.0000   1.0000   1.0000   1.0000   1.0000
     1.0000   1.0000   1.0000   1.0000   1.0000   1.0000   1.0000   1.0000
     1.0000   1.0000   1.0000   1.0000   1.0000   1.0000   1.0000   1.0000
     1.0000   1.0000   1.0000   1.0000   1.0000   1.0000   1.0000   1.0000
     1.0000   1.0000   1.0000   1.0000   1.0000   1.0001   1.0001   1.0002
     1.0004   0.1251   0.1078   0.0058   0.0030   0.0024   0.0018   0.0014
     0.0005   0.0003   0.0000   0.0000   0.0000   0.0000   0.0000   0.0000
     0.0000   0.0000   0.0000   0.0000   0.0000   0.0000   0.0000   0.0000
     0.0000   0.0000   0.0000   0.0000   0.0000   0.0000   0.0000   0.0000
     0.0000   0.0000   0.0000   0.0000   0.0000   0.0000   0.0000   0.0000
     0.0000   0.0000   0.0000   0.0000   0.0000   0.0000   0.0000   0.0000
     0.0000   0.0000   0.0000   0.0000   0.0000   0.0000   0.0000   0.0000
     0.0000   0.0000   0.0000   0.0000   0.0000   0.0000   0.0000   0.0000
     0.0000   0.0000   0.0000   0.0000   0.0000   0.0000   0.0000   0.0000
     0.0000   0.0000   0.0000   0.0000   0.0000   0.0000   0.0000   0.0000
     0.0000   0.0000   0.0000   0.0000   0.0000   0.0000   0.0000   0.0000
     0.0000

          k = 0.0000 0.0000 0.2186 ( 69203 PWs)   bands (ev):

   -75.3720 -75.0669 -74.9249 -74.9214 -74.9008 -74.9006 -74.8998 -74.8895
   -74.8829 -74.8784 -74.8776 -74.8753 -74.8738 -74.8730 -74.8726 -74.8704
   -74.8689 -74.8679 -74.8661 -74.8656 -74.8598 -74.8595 -74.8591 -74.8580
   -74.8561 -74.8492 -74.8467 -74.8451 -74.8443 -74.8347 -74.8255 -41.4391
   -41.4155 -41.1754 -41.0830 -41.0542 -41.0123 -41.0042 -40.9813 -40.9674
   -40.9498 -40.9490 -40.9482 -40.9463 -40.9446 -40.9419 -40.9409 -40.9401
   -40.9383 -40.9372 -40.9342 -40.9340 -40.9333 -40.9328 -40.9317 -40.9311
   -40.9309 -40.9300 -40.9255 -40.9224 -40.9170 -40.9140 -40.9117 -40.9095
   -40.9080 -40.8833 -40.8713 -40.8533 -40.8495 -40.8483 -40.8403 -40.8320
   -40.8221 -40.8194 -40.8175 -40.8150 -40.8146 -40.8132 -40.8109 -40.8100
   -40.8082 -40.8044 -40.8035 -40.8031 -40.8020 -40.8014 -40.8005 -40.8001
   -40.7989 -40.7983 -40.7960 -40.7949 -40.7919 -40.7913 -40.7897 -40.7828
   -40.7827 -40.7813 -40.7809 -40.7804 -40.7786 -40.7757 -40.7741 -40.7736
   -40.7723 -40.7717 -40.7705 -40.7688 -40.7666 -40.7664 -40.7588 -40.7584
   -40.7582 -40.7575 -40.7553 -40.7543 -40.7503 -40.7468 -40.7459 -40.7404
   -40.7394 -40.7359 -40.7326 -40.7222  -4.3198  -4.1385  -3.5261  -3.4391
    -3.4058  -3.2918  -3.2584  -3.0892  -2.9879  -2.8921  -2.8482  -2.7905
    -2.7852  -2.7633  -2.6182  -2.5727  -2.5491  -2.5183  -2.4880  -2.4470
    -2.4420  -2.4251  -2.3231  -2.3040  -2.2829  -2.2315  -2.2199  -2.1358
    -2.1295  -2.0896  -1.9884  -1.9501  -1.3271  -1.2964  -1.1610  -1.1115
    -0.7420  -0.6527  -0.6333  -0.6046  -0.5576  -0.5244  -0.4497  -0.4175
    -0.3718  -0.3589  -0.2776  -0.2102  -0.1278  -0.0592   0.1087   0.1164
     0.1698   0.2297   0.2437   0.3093   0.3416   0.3629   0.4195   0.4708
     0.4839   0.5486   0.5953   0.6956   4.6169   4.7644   4.7795   4.8292
     4.9508   4.9745   5.0184   5.2282   5.2668   5.2888   5.3126   5.3553
     5.3701   5.3773   5.4058   5.4335   5.4764   5.5069   5.5184   5.5322
     5.5481   5.5653   5.5966   5.6093   5.6469   5.6909   5.8053   5.8403
     5.9277   5.9472   5.9661   5.9807   6.0066   6.1048   6.1672   6.2212
     6.3710   6.4031   6.4230   6.4418   6.4725   6.4780   6.4894   6.5403
     6.5959   6.6422   6.7063   6.7399   6.7941   6.8350   6.8476   6.8773
     6.8985   6.9289   6.9825   7.0342   7.0690   7.1154   7.1981   7.2428
     7.2562   7.2892   7.3024   7.3325   7.3470   7.4115   7.4154   7.4405
     7.4892   7.5228   7.6181   7.6823   7.7369   7.7677   7.7826   7.8426
     7.8617   7.8766   7.8954   7.8970   7.9424   7.9809   8.0080   8.0358
     8.0738   8.0954   8.1149   8.1245   8.1657   8.1945   8.2282   8.2655
     8.2936   8.3423   8.3546   8.3636   8.3854   8.3972   8.4095   8.4135
     8.4243   8.4408   8.4513   8.4675   8.4914   8.5153   8.5311   8.5512
     8.5855   8.5993   8.6278   8.6780   8.7057   8.7264   8.7648   8.7808
     8.8029   8.8197   8.8412   8.8497   8.8522   8.8742   8.9226   8.9919
     9.0518   9.0682   9.1149   9.1696   9.2041   9.2506   9.3248   9.3554
     9.3942   9.4467   9.4692   9.4765   9.4874   9.5041   9.5212   9.5671
     9.5841   9.6063   9.6615   9.6669   9.7649   9.8126   9.8455   9.8572
     9.9418  10.0247  10.0384  10.1350  10.1943  10.2413  10.2614  10.3665
    10.4316  10.4452  10.4848  10.4939  10.5013  10.5347  10.5661  10.5947
    10.6744  10.6856  10.7219  10.7462  10.7736  10.7912  10.8039  10.8160
    10.8488  10.8549  10.8882  10.9216  10.9320  10.9925  10.9957  11.0458
    11.0818  11.1165  11.1266  11.1531  11.1814  11.2102  11.2213  11.2284
    11.2441  11.2480  11.2563  11.2690  11.2744  11.2837  11.2921  11.2935
    11.3134  11.3414  11.3576  11.3781  11.4014  11.4153  11.4242  11.4324
    11.4578  11.4661  11.4734  11.4844  11.4885  11.4989  11.5029  11.5069
    11.5148  11.5232  11.5482  11.5621  11.5833  11.6111  11.6201  11.6337
    11.6438  11.6949  11.6986  11.7128  11.7474  11.7734  11.7925  11.8098
    11.8480  11.8869  11.9251  11.9407  11.9449  11.9580  11.9941  11.9969
    12.0005  12.0063  12.0230  12.0297  12.0480  12.0557  12.0818  12.1158
    12.1307  12.1428  12.1592  12.1668  12.1967  12.2130  12.2347  12.2622
    12.3485  13.1607  13.1771  13.2660  13.2898  13.3515  13.4205  13.4527
    13.4779  13.4813  13.5101  13.5233  13.5684  13.5899  13.6193  13.6649
    13.6715  13.7033  13.7125  13.7249  13.7530  13.7778  13.7958  13.8051
    13.8255  13.8408  13.8522  13.8621  13.8814  13.9275  13.9478  13.9612
    13.9914  14.0380  14.0523  14.0614  14.1299  14.1430  14.1516  14.1724
    14.1828  14.1919  14.2115  14.2741  14.2963  14.3252  14.3519  14.3839
    14.4253  14.4299  14.4345  14.4418  14.4484  14.4620  14.4793  14.5010
    14.5090  14.5282  14.5563  14.5688  14.5980  14.6253  14.6416  14.6460
    14.6578  14.7109  14.7465  14.7973  14.8349  14.8573  14.8897  14.9179
    14.9641  14.9892  15.0403  15.0456  15.0521  15.1264  15.1374  15.1601
    15.1843  15.2085  15.2407  15.2874  15.3021  15.3514  15.3754  15.3983
    15.4155

     occupation numbers 
     1.0000   1.0000   1.0000   1.0000   1.0000   1.0000   1.0000   1.0000
     1.0000   1.0000   1.0000   1.0000   1.0000   1.0000   1.0000   1.0000
     1.0000   1.0000   1.0000   1.0000   1.0000   1.0000   1.0000   1.0000
     1.0000   1.0000   1.0000   1.0000   1.0000   1.0000   1.0000   1.0000
     1.0000   1.0000   1.0000   1.0000   1.0000   1.0000   1.0000   1.0000
     1.0000   1.0000   1.0000   1.0000   1.0000   1.0000   1.0000   1.0000
     1.0000   1.0000   1.0000   1.0000   1.0000   1.0000   1.0000   1.0000
     1.0000   1.0000   1.0000   1.0000   1.0000   1.0000   1.0000   1.0000
     1.0000   1.0000   1.0000   1.0000   1.0000   1.0000   1.0000   1.0000
     1.0000   1.0000   1.0000   1.0000   1.0000   1.0000   1.0000   1.0000
     1.0000   1.0000   1.0000   1.0000   1.0000   1.0000   1.0000   1.0000
     1.0000   1.0000   1.0000   1.0000   1.0000   1.0000   1.0000   1.0000
     1.0000   1.0000   1.0000   1.0000   1.0000   1.0000   1.0000   1.0000
     1.0000   1.0000   1.0000   1.0000   1.0000   1.0000   1.0000   1.0000
     1.0000   1.0000   1.0000   1.0000   1.0000   1.0000   1.0000   1.0000
     1.0000   1.0000   1.0000   1.0000   1.0000   1.0000   1.0000   1.0000
     1.0000   1.0000   1.0000   1.0000   1.0000   1.0000   1.0000   1.0000
     1.0000   1.0000   1.0000   1.0000   1.0000   1.0000   1.0000   1.0000
     1.0000   1.0000   1.0000   1.0000   1.0000   1.0000   1.0000   1.0000
     1.0000   1.0000   1.0000   1.0000   1.0000   1.0000   1.0000   1.0000
     1.0000   1.0000   1.0000   1.0000   1.0000   1.0000   1.0000   1.0000
     1.0000   1.0000   1.0000   1.0000   1.0000   1.0000   1.0000   1.0000
     1.0000   1.0000   1.0000   1.0000   1.0000   1.0000   1.0000   1.0000
     1.0000   1.0000   1.0000   1.0000   1.0000   1.0000   1.0000   1.0000
     1.0000   1.0000   1.0000   1.0000   1.0000   1.0000   1.0000   1.0000
     1.0000   1.0000   1.0000   1.0000   1.0000   1.0000   1.0000   1.0000
     1.0000   1.0000   1.0000   1.0000   1.0000   1.0000   1.0000   1.0000
     1.0000   1.0000   1.0000   1.0000   1.0000   1.0000   1.0000   1.0000
     1.0000   1.0000   1.0000   1.0000   1.0000   1.0000   1.0000   1.0000
     1.0000   1.0000   1.0000   1.0000   1.0000   1.0000   1.0000   1.0000
     1.0000   1.0000   1.0000   1.0000   1.0000   1.0000   1.0000   1.0000
     1.0000   1.0000   1.0000   1.0000   1.0000   1.0000   1.0000   1.0000
     1.0000   1.0000   1.0000   1.0000   1.0000   1.0000   1.0000   1.0000
     1.0000   1.0000   1.0000   1.0000   1.0000   1.0000   1.0000   1.0000
     1.0000   1.0000   1.0000   1.0000   1.0000   1.0000   1.0000   1.0000
     1.0000   1.0000   1.0000   1.0000   1.0000   1.0000   1.0000   1.0000
     1.0000   1.0000   1.0000   1.0000   1.0000   1.0000   1.0000   1.0000
     1.0000   1.0000   1.0000   1.0000   1.0000   1.0000   1.0000   1.0000
     1.0000   1.0000   1.0000   1.0000   1.0000   1.0000   1.0000   1.0000
     1.0000   1.0000   1.0000   1.0000   1.0000   1.0000   1.0000   1.0000
     1.0000   1.0000   1.0000   1.0000   1.0000   1.0000   1.0000   1.0000
     1.0000   1.0000   1.0000   1.0000   1.0000   1.0000   1.0000   1.0000
     1.0000   1.0000   1.0000   1.0000   1.0000   1.0000   1.0000   1.0000
     1.0000   1.0000   1.0000   1.0000   1.0000   1.0000   1.0000   1.0000
     1.0000   1.0000   1.0000   1.0000   1.0000   1.0000   1.0000   1.0000
     1.0000   1.0000   1.0000   1.0000   1.0000   1.0000   1.0000   1.0000
     1.0000   1.0000   1.0000   1.0000   1.0000   1.0000   1.0000   1.0000
     1.0000   1.0000   1.0000   1.0000   1.0000   1.0000   1.0000   1.0000
     1.0000   1.0000   1.0000   1.0000   1.0000   1.0000   1.0000   1.0000
     1.0000   1.0000   1.0000   1.0000   1.0000   1.0000   1.0000   1.0000
     1.0000   1.0000   1.0000   1.0000   1.0000   1.0000   1.0000   1.0000
     1.0000   1.0000   1.0000   1.0000   1.0000   1.0000   1.0000   1.0000
     1.0000   1.0000   1.0000   1.0000   1.0000   1.0000   1.0000   1.0000
     1.0000   1.0000   1.0000   1.0000   1.0000   1.0000   1.0000   1.0000
     1.0000   1.0000   1.0000   1.0000   1.0000   1.0000   1.0000   1.0000
     1.0004   0.0776   0.0607   0.0129   0.0081   0.0021   0.0004   0.0002
     0.0001   0.0001   0.0000   0.0000   0.0000   0.0000   0.0000   0.0000
     0.0000   0.0000   0.0000   0.0000   0.0000   0.0000   0.0000   0.0000
     0.0000   0.0000   0.0000   0.0000   0.0000   0.0000   0.0000   0.0000
     0.0000   0.0000   0.0000   0.0000   0.0000   0.0000   0.0000   0.0000
     0.0000   0.0000   0.0000   0.0000   0.0000   0.0000   0.0000   0.0000
     0.0000   0.0000   0.0000   0.0000   0.0000   0.0000   0.0000   0.0000
     0.0000   0.0000   0.0000   0.0000   0.0000   0.0000   0.0000   0.0000
     0.0000   0.0000   0.0000   0.0000   0.0000   0.0000   0.0000   0.0000
     0.0000   0.0000   0.0000   0.0000   0.0000   0.0000   0.0000   0.0000
     0.0000   0.0000   0.0000   0.0000   0.0000   0.0000   0.0000   0.0000
     0.0000

          k = 0.0000-0.4095 0.0000 ( 69190 PWs)   bands (ev):

   -75.3719 -75.0669 -74.9249 -74.9213 -74.9007 -74.9006 -74.8998 -74.8895
   -74.8829 -74.8783 -74.8776 -74.8752 -74.8737 -74.8730 -74.8726 -74.8704
   -74.8689 -74.8678 -74.8660 -74.8656 -74.8598 -74.8595 -74.8590 -74.8580
   -74.8561 -74.8492 -74.8467 -74.8451 -74.8443 -74.8347 -74.8255 -41.4386
   -41.4160 -41.1751 -41.0826 -41.0543 -41.0120 -41.0039 -40.9810 -40.9674
   -40.9494 -40.9490 -40.9478 -40.9459 -40.9442 -40.9415 -40.9404 -40.9400
   -40.9380 -40.9369 -40.9337 -40.9335 -40.9332 -40.9323 -40.9313 -40.9310
   -40.9308 -40.9298 -40.9252 -40.9222 -40.9166 -40.9136 -40.9114 -40.9091
   -40.9078 -40.8829 -40.8709 -40.8529 -40.8491 -40.8486 -40.8399 -40.8316
   -40.8219 -40.8189 -40.8171 -40.8148 -40.8146 -40.8127 -40.8107 -40.8095
   -40.8084 -40.8042 -40.8038 -40.8027 -40.8016 -40.8009 -40.8002 -40.7999
   -40.7984 -40.7980 -40.7957 -40.7945 -40.7923 -40.7910 -40.7894 -40.7827
   -40.7824 -40.7816 -40.7810 -40.7809 -40.7791 -40.7754 -40.7746 -40.7743
   -40.7722 -40.7719 -40.7711 -40.7692 -40.7671 -40.7666 -40.7594 -40.7588
   -40.7580 -40.7577 -40.7561 -40.7552 -40.7510 -40.7474 -40.7467 -40.7409
   -40.7400 -40.7365 -40.7333 -40.7229  -4.1578  -4.1285  -3.7161  -3.6298
    -3.6134  -3.5932  -3.0067  -2.7892  -2.7628  -2.7581  -2.7026  -2.5820
    -2.5757  -2.5670  -2.5637  -2.5506  -2.5304  -2.5169  -2.5132  -2.4959
    -2.4843  -2.4770  -2.4692  -2.4371  -2.3688  -2.3284  -2.3213  -2.2921
    -2.2159  -2.1707  -2.1579  -2.1445  -1.0388  -0.9797  -0.9626  -0.9500
    -0.7951  -0.6945  -0.6873  -0.6817  -0.6773  -0.6244  -0.6145  -0.5731
    -0.3374  -0.2974  -0.2952  -0.1617   0.0371   0.0449   0.0667   0.0746
     0.1391   0.1678   0.2190   0.3009   0.3050   0.3332   0.4401   0.4499
     0.4555   0.5516   0.6010   0.6820   4.6461   4.8226   4.8820   5.2150
     5.2296   5.2355   5.2454   5.2849   5.3016   5.3106   5.3313   5.3461
     5.3530   5.3578   5.3615   5.3671   5.3752   5.3782   5.3918   5.4025
     5.4071   5.4303   5.4409   5.4538   5.4878   5.5369   5.7038   5.7459
     5.7590   5.7691   6.0055   6.1496   6.1824   6.1991   6.2484   6.2755
     6.3195   6.3299   6.3626   6.3802   6.5617   6.6378   6.6384   6.6516
     6.6572   6.6770   6.7018   6.7410   6.7490   6.7648   6.7725   6.7985
     6.8234   6.8568   7.0363   7.1045   7.1211   7.1798   7.2373   7.2460
     7.2680   7.3306   7.4521   7.5208   7.5650   7.5762   7.5901   7.6020
     7.6184   7.6856   7.6940   7.7108   7.7230   7.7625   7.7924   7.8451
     7.8601   7.8662   7.8693   7.8815   7.8958   7.9047   7.9138   7.9225
     7.9411   7.9440   7.9782   7.9943   8.0015   8.0242   8.0306   8.0488
     8.0922   8.1383   8.1463   8.1621   8.1923   8.2595   8.2753   8.3036
     8.3397   8.3628   8.3755   8.3904   8.3931   8.4346   8.4592   8.4825
     8.5374   8.6287   8.7676   8.8132   8.8253   8.8320   8.8477   8.8776
     8.8817   8.9079   8.9452   8.9784   9.0384   9.0516   9.0561   9.1264
     9.1513   9.1831   9.1891   9.2002   9.2607   9.2692   9.3444   9.4059
     9.4400   9.4537   9.4688   9.5096   9.5301   9.5396   9.5435   9.5551
     9.5618   9.5759   9.5790   9.5912   9.6537   9.6947   9.7917   9.8814
     9.8998   9.9825  10.0598  10.0854  10.1285  10.1728  10.3186  10.4055
    10.4230  10.4335  10.4465  10.5615  10.5957  10.6113  10.6275  10.6463
    10.7469  10.7642  10.7863  10.7910  10.8060  10.8161  10.8302  10.8444
    10.8659  10.8946  10.9075  10.9176  10.9487  10.9811  10.9855  11.0052
    11.0077  11.0331  11.1086  11.1203  11.1724  11.1936  11.2092  11.2196
    11.2780  11.2922  11.2981  11.3020  11.3067  11.3207  11.3281  11.3325
    11.3381  11.3423  11.3485  11.3714  11.3883  11.4140  11.4361  11.4417
    11.4523  11.4655  11.4719  11.4902  11.4937  11.5115  11.5159  11.5241
    11.5332  11.5370  11.5419  11.5481  11.6182  11.6272  11.6413  11.6497
    11.6857  11.6950  11.7025  11.7532  11.7689  11.7970  11.8172  11.8345
    11.8577  11.8899  11.8908  11.8979  11.9311  11.9349  11.9401  11.9519
    11.9667  11.9756  11.9801  11.9847  11.9989  12.0080  12.0245  12.0293
    12.0357  12.0654  12.0778  12.0860  12.1455  12.2190  12.2486  12.2626
    12.3711  13.2572  13.2975  13.3410  13.3681  13.3858  13.3940  13.5192
    13.5367  13.5626  13.5916  13.6018  13.6087  13.6264  13.6306  13.6560
    13.6703  13.7240  13.7329  13.7350  13.7549  13.8140  13.8488  13.8687
    13.8726  13.8815  13.9052  13.9182  13.9481  13.9530  13.9602  13.9853
    13.9864  14.0050  14.0183  14.0231  14.0268  14.0441  14.0467  14.0637
    14.1276  14.1306  14.1340  14.1554  14.2035  14.2271  14.2475  14.2590
    14.2613  14.2684  14.2714  14.2757  14.2947  14.3057  14.3188  14.3606
    14.4066  14.4255  14.4437  14.7291  14.8096  14.8308  14.8371  14.8508
    14.8784  14.8947  14.9022  14.9639  14.9748  15.0074  15.0462  15.0621
    15.0666  15.0879  15.0980  15.1171  15.1228  15.1445  15.1632  15.2089
    15.2372  15.2434  15.2661  15.2979  15.3151  15.3277  15.3289  15.3459
    15.3948

     occupation numbers 
     1.0000   1.0000   1.0000   1.0000   1.0000   1.0000   1.0000   1.0000
     1.0000   1.0000   1.0000   1.0000   1.0000   1.0000   1.0000   1.0000
     1.0000   1.0000   1.0000   1.0000   1.0000   1.0000   1.0000   1.0000
     1.0000   1.0000   1.0000   1.0000   1.0000   1.0000   1.0000   1.0000
     1.0000   1.0000   1.0000   1.0000   1.0000   1.0000   1.0000   1.0000
     1.0000   1.0000   1.0000   1.0000   1.0000   1.0000   1.0000   1.0000
     1.0000   1.0000   1.0000   1.0000   1.0000   1.0000   1.0000   1.0000
     1.0000   1.0000   1.0000   1.0000   1.0000   1.0000   1.0000   1.0000
     1.0000   1.0000   1.0000   1.0000   1.0000   1.0000   1.0000   1.0000
     1.0000   1.0000   1.0000   1.0000   1.0000   1.0000   1.0000   1.0000
     1.0000   1.0000   1.0000   1.0000   1.0000   1.0000   1.0000   1.0000
     1.0000   1.0000   1.0000   1.0000   1.0000   1.0000   1.0000   1.0000
     1.0000   1.0000   1.0000   1.0000   1.0000   1.0000   1.0000   1.0000
     1.0000   1.0000   1.0000   1.0000   1.0000   1.0000   1.0000   1.0000
     1.0000   1.0000   1.0000   1.0000   1.0000   1.0000   1.0000   1.0000
     1.0000   1.0000   1.0000   1.0000   1.0000   1.0000   1.0000   1.0000
     1.0000   1.0000   1.0000   1.0000   1.0000   1.0000   1.0000   1.0000
     1.0000   1.0000   1.0000   1.0000   1.0000   1.0000   1.0000   1.0000
     1.0000   1.0000   1.0000   1.0000   1.0000   1.0000   1.0000   1.0000
     1.0000   1.0000   1.0000   1.0000   1.0000   1.0000   1.0000   1.0000
     1.0000   1.0000   1.0000   1.0000   1.0000   1.0000   1.0000   1.0000
     1.0000   1.0000   1.0000   1.0000   1.0000   1.0000   1.0000   1.0000
     1.0000   1.0000   1.0000   1.0000   1.0000   1.0000   1.0000   1.0000
     1.0000   1.0000   1.0000   1.0000   1.0000   1.0000   1.0000   1.0000
     1.0000   1.0000   1.0000   1.0000   1.0000   1.0000   1.0000   1.0000
     1.0000   1.0000   1.0000   1.0000   1.0000   1.0000   1.0000   1.0000
     1.0000   1.0000   1.0000   1.0000   1.0000   1.0000   1.0000   1.0000
     1.0000   1.0000   1.0000   1.0000   1.0000   1.0000   1.0000   1.0000
     1.0000   1.0000   1.0000   1.0000   1.0000   1.0000   1.0000   1.0000
     1.0000   1.0000   1.0000   1.0000   1.0000   1.0000   1.0000   1.0000
     1.0000   1.0000   1.0000   1.0000   1.0000   1.0000   1.0000   1.0000
     1.0000   1.0000   1.0000   1.0000   1.0000   1.0000   1.0000   1.0000
     1.0000   1.0000   1.0000   1.0000   1.0000   1.0000   1.0000   1.0000
     1.0000   1.0000   1.0000   1.0000   1.0000   1.0000   1.0000   1.0000
     1.0000   1.0000   1.0000   1.0000   1.0000   1.0000   1.0000   1.0000
     1.0000   1.0000   1.0000   1.0000   1.0000   1.0000   1.0000   1.0000
     1.0000   1.0000   1.0000   1.0000   1.0000   1.0000   1.0000   1.0000
     1.0000   1.0000   1.0000   1.0000   1.0000   1.0000   1.0000   1.0000
     1.0000   1.0000   1.0000   1.0000   1.0000   1.0000   1.0000   1.0000
     1.0000   1.0000   1.0000   1.0000   1.0000   1.0000   1.0000   1.0000
     1.0000   1.0000   1.0000   1.0000   1.0000   1.0000   1.0000   1.0000
     1.0000   1.0000   1.0000   1.0000   1.0000   1.0000   1.0000   1.0000
     1.0000   1.0000   1.0000   1.0000   1.0000   1.0000   1.0000   1.0000
     1.0000   1.0000   1.0000   1.0000   1.0000   1.0000   1.0000   1.0000
     1.0000   1.0000   1.0000   1.0000   1.0000   1.0000   1.0000   1.0000
     1.0000   1.0000   1.0000   1.0000   1.0000   1.0000   1.0000   1.0000
     1.0000   1.0000   1.0000   1.0000   1.0000   1.0000   1.0000   1.0000
     1.0000   1.0000   1.0000   1.0000   1.0000   1.0000   1.0000   1.0000
     1.0000   1.0000   1.0000   1.0000   1.0000   1.0000   1.0000   1.0000
     1.0000   1.0000   1.0000   1.0000   1.0000   1.0000   1.0000   1.0000
     1.0000   1.0000   1.0000   1.0000   1.0000   1.0000   1.0000   1.0000
     1.0000   1.0000   1.0000   1.0000   1.0000   1.0000   1.0000   1.0000
     1.0000   1.0000   1.0000   1.0000   1.0000   1.0000   1.0000   1.0000
     1.0000   1.0000   1.0000   1.0000   1.0000   1.0000   1.0000   1.0000
     1.0000   1.0000   1.0000   1.0000   1.0000   1.0000   1.0000   1.0000
     1.0007   0.0153   0.0069   0.0027   0.0014   0.0009   0.0007   0.0000
     0.0000   0.0000   0.0000   0.0000   0.0000   0.0000   0.0000   0.0000
     0.0000   0.0000   0.0000   0.0000   0.0000   0.0000   0.0000   0.0000
     0.0000   0.0000   0.0000   0.0000   0.0000   0.0000   0.0000   0.0000
     0.0000   0.0000   0.0000   0.0000   0.0000   0.0000   0.0000   0.0000
     0.0000   0.0000   0.0000   0.0000   0.0000   0.0000   0.0000   0.0000
     0.0000   0.0000   0.0000   0.0000   0.0000   0.0000   0.0000   0.0000
     0.0000   0.0000   0.0000   0.0000   0.0000   0.0000   0.0000   0.0000
     0.0000   0.0000   0.0000   0.0000   0.0000   0.0000   0.0000   0.0000
     0.0000   0.0000   0.0000   0.0000   0.0000   0.0000   0.0000   0.0000
     0.0000   0.0000   0.0000   0.0000   0.0000   0.0000   0.0000   0.0000
     0.0000

          k = 0.0000-0.4095 0.2186 ( 69180 PWs)   bands (ev):

   -75.3719 -75.0668 -74.9249 -74.9213 -74.9007 -74.9006 -74.8997 -74.8895
   -74.8828 -74.8783 -74.8776 -74.8752 -74.8737 -74.8730 -74.8725 -74.8703
   -74.8689 -74.8678 -74.8660 -74.8656 -74.8598 -74.8594 -74.8590 -74.8579
   -74.8561 -74.8492 -74.8466 -74.8451 -74.8442 -74.8346 -74.8254 -41.4386
   -41.4159 -41.1750 -41.0826 -41.0542 -41.0119 -41.0038 -40.9809 -40.9674
   -40.9493 -40.9491 -40.9477 -40.9458 -40.9441 -40.9415 -40.9404 -40.9398
   -40.9380 -40.9369 -40.9338 -40.9333 -40.9328 -40.9326 -40.9312 -40.9310
   -40.9307 -40.9297 -40.9251 -40.9221 -40.9166 -40.9136 -40.9113 -40.9090
   -40.9078 -40.8829 -40.8709 -40.8528 -40.8491 -40.8486 -40.8398 -40.8316
   -40.8219 -40.8189 -40.8171 -40.8152 -40.8146 -40.8126 -40.8107 -40.8096
[...]
     atom   73 type  1   force =    -0.00011182    0.00014496    0.00026709
     atom   74 type  1   force =     0.00004239   -0.00010618    0.00015551
     atom   75 type  2   force =     0.00492020   -0.00295884   -0.00006070
     atom   76 type  2   force =    -0.00486677    0.00306163    0.00004603
     atom   77 type  2   force =    -0.00497326   -0.00302142    0.00000362
     atom   78 type  2   force =     0.00510821    0.00317832    0.00006409
     atom   79 type  1   force =    -0.00144055    0.00040756    0.00003765
     atom   80 type  1   force =     0.00049546   -0.00105543   -0.00150588
     atom   81 type  2   force =     0.00516951   -0.00259820    0.00034930
     atom   82 type  2   force =    -0.00524829    0.00301843    0.00045396
     atom   83 type  2   force =    -0.00493445   -0.00315016    0.00033030
     atom   84 type  2   force =     0.00651614    0.00385726   -0.00021998
     atom   85 type  1   force =     0.00061331   -0.00065625    0.00178186
     atom   86 type  2   force =     0.00243583   -0.01211984    0.00006462
     atom   87 type  2   force =    -0.00506687    0.00331769   -0.00000481
     atom   88 type  2   force =    -0.00503238   -0.00316645   -0.00031847
     atom   89 type  2   force =     0.00627221    0.00376890    0.00010504
     atom   90 type  1   force =    -0.00075305    0.00041055    0.00129515
     atom   91 type  1   force =    -0.00007344   -0.00009202   -0.00049126
     atom   92 type  2   force =     0.00508849   -0.00262362   -0.00030484
     atom   93 type  2   force =    -0.00523744    0.00309404   -0.00040613
     atom   94 type  2   force =    -0.00497718   -0.00307689   -0.00002362
     atom   95 type  2   force =     0.00529897    0.00319279   -0.00027949
     atom   96 type  3   force =     0.00000000    0.00000000    0.00000000
     The Hubbard contrib.    to forces
     atom    1 type  1   force =     0.00000000    0.00000000    0.00000000
     atom    2 type  1   force =     0.00000000    0.00000000    0.00000000
     atom    3 type  2   force =     0.00000000    0.00000000    0.00000000
     atom    4 type  2   force =     0.00000000    0.00000000    0.00000000
     atom    5 type  2   force =     0.00000000    0.00000000    0.00000000
     atom    6 type  2   force =     0.00000000    0.00000000    0.00000000
     atom    7 type  1   force =     0.00000000    0.00000000    0.00000000
     atom    8 type  1   force =     0.00000000    0.00000000    0.00000000
     atom    9 type  2   force =     0.00000000    0.00000000    0.00000000
     atom   10 type  2   force =     0.00000000    0.00000000    0.00000000
     atom   11 type  2   force =     0.00000000    0.00000000    0.00000000
     atom   12 type  2   force =     0.00000000    0.00000000    0.00000000
     atom   13 type  1   force =     0.00000000    0.00000000    0.00000000
     atom   14 type  1   force =     0.00000000    0.00000000    0.00000000
     atom   15 type  2   force =     0.00000000    0.00000000    0.00000000
     atom   16 type  2   force =     0.00000000    0.00000000    0.00000000
     atom   17 type  2   force =     0.00000000    0.00000000    0.00000000
     atom   18 type  2   force =     0.00000000    0.00000000    0.00000000
     atom   19 type  1   force =     0.00000000    0.00000000    0.00000000
     atom   20 type  1   force =     0.00000000    0.00000000    0.00000000
     atom   21 type  2   force =     0.00000000    0.00000000    0.00000000
     atom   22 type  2   force =     0.00000000    0.00000000    0.00000000
     atom   23 type  2   force =     0.00000000    0.00000000    0.00000000
     atom   24 type  2   force =     0.00000000    0.00000000    0.00000000
     atom   25 type  1   force =     0.00000000    0.00000000    0.00000000
     atom   26 type  1   force =     0.00000000    0.00000000    0.00000000
     atom   27 type  2   force =     0.00000000    0.00000000    0.00000000
     atom   28 type  2   force =     0.00000000    0.00000000    0.00000000
     atom   29 type  2   force =     0.00000000    0.00000000    0.00000000
     atom   30 type  2   force =     0.00000000    0.00000000    0.00000000
     atom   31 type  1   force =     0.00000000    0.00000000    0.00000000
     atom   32 type  1   force =     0.00000000    0.00000000    0.00000000
     atom   33 type  2   force =     0.00000000    0.00000000    0.00000000
     atom   34 type  2   force =     0.00000000    0.00000000    0.00000000
     atom   35 type  2   force =     0.00000000    0.00000000    0.00000000
     atom   36 type  2   force =     0.00000000    0.00000000    0.00000000
     atom   37 type  1   force =     0.00000000    0.00000000    0.00000000
     atom   38 type  1   force =     0.00000000    0.00000000    0.00000000
     atom   39 type  2   force =     0.00000000    0.00000000    0.00000000
     atom   40 type  2   force =     0.00000000    0.00000000    0.00000000
     atom   41 type  2   force =     0.00000000    0.00000000    0.00000000
     atom   42 type  2   force =     0.00000000    0.00000000    0.00000000
     atom   43 type  1   force =     0.00000000    0.00000000    0.00000000
     atom   44 type  1   force =     0.00000000    0.00000000    0.00000000
     atom   45 type  2   force =     0.00000000    0.00000000    0.00000000
     atom   46 type  2   force =     0.00000000    0.00000000    0.00000000
     atom   47 type  2   force =     0.00000000    0.00000000    0.00000000
     atom   48 type  2   force =     0.00000000    0.00000000    0.00000000
     atom   49 type  1   force =     0.00000000    0.00000000    0.00000000
     atom   50 type  1   force =     0.00000000    0.00000000    0.00000000
     atom   51 type  2   force =     0.00000000    0.00000000    0.00000000
     atom   52 type  2   force =     0.00000000    0.00000000    0.00000000
     atom   53 type  2   force =     0.00000000    0.00000000    0.00000000
     atom   54 type  2   force =     0.00000000    0.00000000    0.00000000
     atom   55 type  1   force =     0.00000000    0.00000000    0.00000000
     atom   56 type  1   force =     0.00000000    0.00000000    0.00000000
     atom   57 type  2   force =     0.00000000    0.00000000    0.00000000
     atom   58 type  2   force =     0.00000000    0.00000000    0.00000000
     atom   59 type  2   force =     0.00000000    0.00000000    0.00000000
     atom   60 type  2   force =     0.00000000    0.00000000    0.00000000
     atom   61 type  1   force =     0.00000000    0.00000000    0.00000000
     atom   62 type  1   force =     0.00000000    0.00000000    0.00000000
     atom   63 type  2   force =     0.00000000    0.00000000    0.00000000
     atom   64 type  2   force =     0.00000000    0.00000000    0.00000000
     atom   65 type  2   force =     0.00000000    0.00000000    0.00000000
     atom   66 type  2   force =     0.00000000    0.00000000    0.00000000
     atom   67 type  1   force =     0.00000000    0.00000000    0.00000000
     atom   68 type  1   force =     0.00000000    0.00000000    0.00000000
     atom   69 type  2   force =     0.00000000    0.00000000    0.00000000
     atom   70 type  2   force =     0.00000000    0.00000000    0.00000000
     atom   71 type  2   force =     0.00000000    0.00000000    0.00000000
     atom   72 type  2   force =     0.00000000    0.00000000    0.00000000
     atom   73 type  1   force =     0.00000000    0.00000000    0.00000000
     atom   74 type  1   force =     0.00000000    0.00000000    0.00000000
     atom   75 type  2   force =     0.00000000    0.00000000    0.00000000
     atom   76 type  2   force =     0.00000000    0.00000000    0.00000000
     atom   77 type  2   force =     0.00000000    0.00000000    0.00000000
     atom   78 type  2   force =     0.00000000    0.00000000    0.00000000
     atom   79 type  1   force =     0.00000000    0.00000000    0.00000000
     atom   80 type  1   force =     0.00000000    0.00000000    0.00000000
     atom   81 type  2   force =     0.00000000    0.00000000    0.00000000
     atom   82 type  2   force =     0.00000000    0.00000000    0.00000000
     atom   83 type  2   force =     0.00000000    0.00000000    0.00000000
     atom   84 type  2   force =     0.00000000    0.00000000    0.00000000
     atom   85 type  1   force =     0.00000000    0.00000000    0.00000000
     atom   86 type  2   force =     0.00000000    0.00000000    0.00000000
     atom   87 type  2   force =     0.00000000    0.00000000    0.00000000
     atom   88 type  2   force =     0.00000000    0.00000000    0.00000000
     atom   89 type  2   force =     0.00000000    0.00000000    0.00000000
     atom   90 type  1   force =     0.00000000    0.00000000    0.00000000
     atom   91 type  1   force =     0.00000000    0.00000000    0.00000000
     atom   92 type  2   force =     0.00000000    0.00000000    0.00000000
     atom   93 type  2   force =     0.00000000    0.00000000    0.00000000
     atom   94 type  2   force =     0.00000000    0.00000000    0.00000000
     atom   95 type  2   force =     0.00000000    0.00000000    0.00000000
     atom   96 type  3   force =     0.00000000    0.00000000    0.00000000
     The SCF correction term to forces
     atom    1 type  1   force =     0.00000194    0.00000702   -0.00004214
     atom    2 type  1   force =    -0.00000306   -0.00000505   -0.00006417
     atom    3 type  2   force =    -0.00000345   -0.00000101   -0.00001555
     atom    4 type  2   force =     0.00000237   -0.00000422   -0.00001736
     atom    5 type  2   force =     0.00000532   -0.00000122   -0.00002343
     atom    6 type  2   force =    -0.00000447   -0.00000101   -0.00002432
     atom    7 type  1   force =    -0.00000448    0.00000800   -0.00005543
     atom    8 type  1   force =     0.00000254    0.00000606   -0.00000312
     atom    9 type  2   force =    -0.00000254    0.00000208   -0.00001842
     atom   10 type  2   force =     0.00000303   -0.00000003   -0.00001426
     atom   11 type  2   force =     0.00001415   -0.00000359   -0.00000367
     atom   12 type  2   force =    -0.00000273    0.00000315   -0.00000460
     atom   13 type  1   force =    -0.00000206    0.00000766    0.00003535
     atom   14 type  1   force =     0.00002107   -0.00001540    0.00005356
     atom   15 type  2   force =     0.00000146    0.00000077    0.00001072
     atom   16 type  2   force =    -0.00000201    0.00000817    0.00001111
     atom   17 type  2   force =     0.00001463    0.00000056    0.00002416
     atom   18 type  2   force =    -0.00000271    0.00000031    0.00002610
     atom   19 type  1   force =     0.00000404    0.00000532    0.00006146
     atom   20 type  1   force =     0.00000158   -0.00000149    0.00001105
     atom   21 type  2   force =    -0.00000187   -0.00000060    0.00002344
     atom   22 type  2   force =     0.00000835    0.00000497    0.00002030
     atom   23 type  2   force =     0.00000750   -0.00000007    0.00000355
     atom   24 type  2   force =    -0.00000457   -0.00000131    0.00000281
     atom   25 type  1   force =     0.00000342   -0.00000766   -0.00004627
     atom   26 type  1   force =     0.00000416    0.00000245   -0.00006536
     atom   27 type  2   force =    -0.00000235    0.00000224   -0.00001715
     atom   28 type  2   force =     0.00000237    0.00000147   -0.00001711
     atom   29 type  2   force =     0.00000336    0.00000616   -0.00002611
     atom   30 type  2   force =    -0.00000324   -0.00000364   -0.00001920
     atom   31 type  1   force =     0.00001442   -0.00001610   -0.00005990
     atom   32 type  1   force =     0.00000432   -0.00001962   -0.00002767
     atom   33 type  2   force =     0.00000007    0.00000218   -0.00001905
     atom   34 type  2   force =     0.00000526   -0.00000154   -0.00001903
     atom   35 type  2   force =     0.00000266    0.00000620   -0.00000502
     atom   36 type  2   force =     0.00000444   -0.00000967   -0.00000026
     atom   37 type  1   force =     0.00002333   -0.00001885    0.00001918
     atom   38 type  1   force =     0.00001116   -0.00001450    0.00008773
     atom   39 type  2   force =     0.00000340    0.00000214    0.00001343
     atom   40 type  2   force =     0.00000596   -0.00000369    0.00001520
     atom   41 type  2   force =     0.00000605    0.00000563    0.00002627
     atom   42 type  2   force =     0.00001071   -0.00000377    0.00002701
     atom   43 type  1   force =     0.00000794   -0.00000700    0.00008666
     atom   44 type  1   force =     0.00000842   -0.00000113    0.00000621
     atom   45 type  2   force =     0.00000337    0.00000279    0.00002236
     atom   46 type  2   force =     0.00000333   -0.00000204    0.00002044
     atom   47 type  2   force =     0.00000521    0.00000459    0.00000507
     atom   48 type  2   force =     0.00000064   -0.00000528   -0.00000573
     atom   49 type  1   force =    -0.00000173    0.00000553   -0.00004345
     atom   50 type  1   force =     0.00000006   -0.00000459   -0.00006206
     atom   51 type  2   force =    -0.00000336    0.00000008   -0.00001696
     atom   52 type  2   force =     0.00000434   -0.00000446   -0.00001680
     atom   53 type  2   force =     0.00000153   -0.00000092   -0.00002014
     atom   54 type  2   force =    -0.00000280   -0.00000166   -0.00002469
     atom   55 type  1   force =     0.00000378    0.00000386   -0.00004908
     atom   56 type  1   force =     0.00000250    0.00000303   -0.00003071
     atom   57 type  2   force =    -0.00000324    0.00000157   -0.00001755
     atom   58 type  2   force =     0.00000258   -0.00000560   -0.00001723
     atom   59 type  2   force =    -0.00001036   -0.00000231   -0.00000492
     atom   60 type  2   force =    -0.00000563   -0.00000216   -0.00000538
     atom   61 type  1   force =     0.00000347    0.00000533    0.00003935
     atom   62 type  1   force =    -0.00000944    0.00001276    0.00008260
     atom   63 type  2   force =    -0.00000600    0.00000202    0.00001207
     atom   64 type  2   force =     0.00000238   -0.00000553    0.00001019
     atom   65 type  2   force =    -0.00001491   -0.00000094    0.00003016
     atom   66 type  2   force =    -0.00000423   -0.00000346    0.00002444
     atom   67 type  1   force =    -0.00000358    0.00000419    0.00005278
     atom   68 type  1   force =    -0.00000703    0.00000106    0.00001036
     atom   69 type  2   force =    -0.00000614    0.00000284    0.00002202
     atom   70 type  2   force =     0.00000088   -0.00000445    0.00002398
     atom   71 type  2   force =    -0.00000186    0.00000128   -0.00000469
     atom   72 type  2   force =    -0.00000424   -0.00000069    0.00000578
     atom   73 type  1   force =    -0.00000355   -0.00000541   -0.00005477
     atom   74 type  1   force =    -0.00000150    0.00000777   -0.00005806
     atom   75 type  2   force =    -0.00000388    0.00000296   -0.00001746
     atom   76 type  2   force =     0.00000393    0.00000326   -0.00001592
     atom   77 type  2   force =     0.00000425    0.00000502   -0.00002308
     atom   78 type  2   force =    -0.00000419   -0.00000281   -0.00002466
     atom   79 type  1   force =    -0.00001204   -0.00000096   -0.00003354
     atom   80 type  1   force =    -0.00001817    0.00002382   -0.00000738
     atom   81 type  2   force =    -0.00000459    0.00000034   -0.00001508
     atom   82 type  2   force =    -0.00000046    0.00000238   -0.00001855
     atom   83 type  2   force =     0.00000594    0.00000202   -0.00000474
     atom   84 type  2   force =    -0.00000939   -0.00000241   -0.00000653
     atom   85 type  1   force =    -0.00002603    0.00002300    0.00005157
     atom   86 type  2   force =    -0.00000231   -0.00000617    0.00001193
     atom   87 type  2   force =    -0.00000273    0.00000415    0.00001052
     atom   88 type  2   force =     0.00000158    0.00000287    0.00002482
     atom   89 type  2   force =    -0.00001050   -0.00000332    0.00002685
     atom   90 type  1   force =    -0.00000769   -0.00000345    0.00004746
     atom   91 type  1   force =    -0.00000330    0.00000217    0.00001132
     atom   92 type  2   force =    -0.00001168   -0.00000556    0.00002096
     atom   93 type  2   force =     0.00000361    0.00000282    0.00002373
     atom   94 type  2   force =     0.00000352    0.00000493    0.00000299
     atom   95 type  2   force =    -0.00000635   -0.00000381    0.00000420
     atom   96 type  3   force =    -0.00000002   -0.00000105    0.00000161

     Total force =     0.021837     Total SCF correction =     0.000325

     Writing all to output data dir /tmp/marc_spin_diag/marc_endB_m113/tmp/marc_endB_m113.save/ :
     XML data file, charge density, pseudopotentials, collected wavefunctions
 
     init_run     :     36.28s CPU     42.47s WALL (       1 calls)
     electrons    :    843.35s CPU    891.20s WALL (       1 calls)
     forces       :      8.68s CPU      8.47s WALL (       1 calls)

     Called by init_run:
     wfcinit      :     33.75s CPU     38.11s WALL (       1 calls)
     wfcinit:atom :      8.59s CPU      8.59s WALL (      16 calls)
     wfcinit:wfcr :     18.44s CPU     18.62s WALL (      16 calls)
     potinit      :      0.10s CPU      0.21s WALL (       1 calls)
     hinit0       :      2.11s CPU      1.89s WALL (       1 calls)

     Called by electrons:
     c_bands      :    734.94s CPU    759.97s WALL (      20 calls)
     sum_band     :    102.75s CPU    122.99s WALL (      20 calls)
     v_of_rho     :      0.71s CPU      0.75s WALL (      21 calls)
     v_h          :      0.25s CPU      0.19s WALL (      21 calls)
     v_xc         :      0.48s CPU      0.60s WALL (      22 calls)
     mix_rho      :      4.32s CPU      6.58s WALL (      20 calls)

     Called by c_bands:
     init_us_2    :     33.35s CPU     33.45s WALL (     672 calls)
     cegterg      :    600.70s CPU    602.16s WALL (     320 calls)

     Called by sum_band:
     sum_band:wei :      0.25s CPU      0.25s WALL (      20 calls)
     sum_band:loo :    102.07s CPU    122.20s WALL (      20 calls)
     sum_band:buf :     30.62s CPU     50.70s WALL (     320 calls)
     sum_band:ini :     13.24s CPU     13.29s WALL (     320 calls)

     Called by *egterg:
     cdiaghg      :     55.31s CPU     55.82s WALL (    1552 calls)
                                       55.38s GPU  (    1552 calls)
     cegterg:over :     72.92s CPU     73.05s WALL (    1232 calls)
     cegterg:upda :     76.69s CPU     76.82s WALL (    1232 calls)
     cegterg:last :     27.61s CPU     27.67s WALL (     643 calls)
     h_psi        :    337.84s CPU    338.62s WALL (    1568 calls)
     g_psi        :      1.23s CPU      1.24s WALL (    1232 calls)

     Called by h_psi:
     h_psi:calbec :      0.10s CPU      0.15s WALL (    1568 calls)
     vloc_psi     :    224.64s CPU    225.60s WALL (    1568 calls)
                                      225.17s GPU  (    1568 calls)
     add_vuspsi   :    111.22s CPU    111.43s WALL (    1568 calls)

     General routines
     calbec       :      0.10s CPU      0.15s WALL (    1632 calls)
     fft          :      0.01s CPU      0.07s WALL (     414 calls)
                                        0.04s GPU  (     414 calls)
     ffts         :      0.01s CPU      0.09s WALL (     561 calls)
                                        0.06s GPU  (     561 calls)
     fftw         :      0.82s CPU    146.42s WALL (   63116 calls)
                                      129.76s GPU  (   63116 calls)
 
     Parallel routines
 
     PWSCF        :  14m50.55s CPU  15m51.45s WALL

 
   This run was terminated on:   2:39: 5  29May2026            

=------------------------------------------------------------------------------=
   JOB DONE.
=------------------------------------------------------------------------------=
Warning: ieee_invalid is signaling
Warning: ieee_divide_by_zero is signaling
Warning: ieee_inexact is signaling
FORTRAN STOP
