
     Program PWSCF v.7.5 starts on 29May2026 at  0:10:59 

     This program is part of the open-source Quantum ESPRESSO suite
     for quantum simulation of materials; please cite
         "P. Giannozzi et al., J. Phys.:Condens. Matter 21 395502 (2009);
         "P. Giannozzi et al., J. Phys.:Condens. Matter 29 465901 (2017);
         "P. Giannozzi et al., J. Chem. Phys. 152 154105 (2020);
          URL http://www.quantum-espresso.org", 
     in publications or presentations arising from this work. More details at
     http://www.quantum-espresso.org/quote

     Parallel version (MPI & OpenMP), running on       6 processor cores
     Number of MPI processes:                 1
     Threads/MPI process:                     6

     MPI processes distributed on     1 nodes
     34993 MiB available memory on the printing compute node when the environment starts
 
     Reading input from marc_endA_m113.in
Warning: card &CELL ignored
Warning: card &FCP ignored
Warning: card &RISM ignored

     Current dimensions of program PWSCF are:
     Max number of different atomic species (ntypx) = 10
     Max number of k-points (npk) =  40000
     Max angular momentum in pseudopotentials (lmaxx) =  4
 
     Subspace diagonalization in iterative solution of the eigenvalue problem:
     a serial algorithm will be used

 
     G-vector sticks info
     --------------------
     sticks:   dense  smooth     PW     G-vecs:    dense   smooth      PW
     Sum        6591    6591   1755               553421   553421   76211
 
     Using Slab Decomposition
 


     bravais-lattice index     =            0
     lattice parameter (alat)  =      16.7921  a.u.
     unit-cell volume          =    8814.7061 (a.u.)^3
     number of atoms/cell      =           96
     number of atomic types    =            3
     number of electrons       =       881.00 (up: 441.06, down: 439.94)
     number of Kohn-Sham states=          529
     kinetic-energy cutoff     =      60.0000  Ry
     charge density cutoff     =     240.0000  Ry
     scf convergence threshold =      1.0E-08
     mixing beta               =       0.2000
     number of iterations used =           12  local-TF  mixing
     Exchange-correlation= PBE
                           (   1   4   3   4   0   0   0)

     GPU acceleration is ACTIVE.  1 visible GPUs per MPI rank


     GPU used by master process:

        Device Number: 0
        Device name: NVIDIA A100-SXM4-40GB
        Compute capability : 80
        Ratio of single to double precision performance  : 2
        Memory Clock Rate (KHz): 1215000
        Memory Bus Width (bits): 5120
        Peak Memory Bandwidth (GB/s): ******

     celldm(1)=  16.792106  celldm(2)=   0.000000  celldm(3)=   0.000000
     celldm(4)=   0.000000  celldm(5)=   0.000000  celldm(6)=   0.000000

     crystal axes: (cart. coord. in units of alat)
               a(1) = (   1.000000   0.000000   0.000000 )  
               a(2) = (   0.000000   1.221022   0.000000 )  
               a(3) = (   0.000000   0.000000   1.524646 )  

     reciprocal axes: (cart. coord. in units 2 pi/alat)
               b(1) = (  1.000000  0.000000  0.000000 )  
               b(2) = (  0.000000  0.818986  0.000000 )  
               b(3) = (  0.000000  0.000000  0.655890 )  


     PseudoPot. # 1 for Fe read from file:
     /opt/pp/oncv_pbe/Fe.upf
     MD5 check sum: a5f07f5dca5be6cacb81ceb54992e4ae
     Pseudo is Norm-conserving + core correction, Zval = 16.0
     Generated using ONCVPSP code by D. R. Hamann
     Using radial grid of 1426 points,  6 beta functions with: 
                l(1) =   0
                l(2) =   0
                l(3) =   1
                l(4) =   1
                l(5) =   2
                l(6) =   2

     PseudoPot. # 2 for S  read from file:
     /opt/pp/oncv_pbe/S.upf
     MD5 check sum: 6027e7704d67ae28863b2247926ce6f3
     Pseudo is Norm-conserving + core correction, Zval =  6.0
     Generated using ONCVPSP code by D. R. Hamann
     Using radial grid of 1146 points,  6 beta functions with: 
                l(1) =   0
                l(2) =   0
                l(3) =   1
                l(4) =   1
                l(5) =   2
                l(6) =   2

     PseudoPot. # 3 for H  read from file:
     /opt/pp/oncv_pbe/H.upf
     MD5 check sum: e96aa7e3e4a958db16958554ea960e2a
     Pseudo is Norm-conserving, Zval =  1.0
     Generated using ONCVPSP code by D. R. Hamann
     Using radial grid of 1166 points,  3 beta functions with: 
                l(1) =   0
                l(2) =   0
                l(3) =   1

     atomic species   valence    mass     pseudopotential
     Fe               16.00    55.84500     Fe( 1.00)
     S                 6.00    32.06000     S ( 1.00)
     H                 1.00     1.00800     H ( 1.00)

     Starting magnetic structure 
     atomic species   magnetization
     Fe              0.065
     S               0.000
     H               0.000

     No symmetry found


                                    s                        frac. trans.

      isym =  1     identity                                     

 cryst.   s( 1) = (     1          0          0      )
                  (     0          1          0      )
                  (     0          0          1      )

 cart.    s( 1) = (  1.0000000  0.0000000  0.0000000 )
                  (  0.0000000  1.0000000  0.0000000 )
                  (  0.0000000  0.0000000  1.0000000 )


   Cartesian axes

     site n.     atom                  positions (alat units)
         1        Fe     tau(   1) = (   0.0000791   0.0000617   0.0000006  )
         2        Fe     tau(   2) = (   0.2507120   0.3054380   0.1901415  )
         3        S      tau(   3) = (   0.1040521   0.2287345  -0.0000013  )
         4        S      tau(   4) = (   0.3966387   0.3820258  -0.0000019  )
         5        S      tau(   5) = (   0.1465616   0.5341068   0.1903682  )
         6        S      tau(   6) = (   0.3540329   0.0767779   0.1903529  )
         7        Fe     tau(   7) = (   0.0003612   0.0003098   0.3808954  )
         8        Fe     tau(   8) = (   0.2498161   0.3045343   0.5701662  )
         9        S      tau(   9) = (   0.1037037   0.2286932   0.3798395  )
        10        S      tau(  10) = (   0.3972819   0.3818758   0.3812266  )
        11        S      tau(  11) = (   0.1479395   0.5382306   0.5695289  )
        12        S      tau(  12) = (   0.3535631   0.0755918   0.5707970  )
        13        Fe     tau(  13) = (  -0.0000087   0.0002267   0.7623240  )
        14        Fe     tau(  14) = (   0.2498192   0.3045372   0.9544783  )
        15        S      tau(  15) = (   0.1012350   0.2283935   0.7623255  )
        16        S      tau(  16) = (   0.3892049   0.3642683   0.7623194  )
        17        S      tau(  17) = (   0.1479512   0.5382435   0.9551266  )
        18        S      tau(  18) = (   0.3535625   0.0755952   0.9538509  )
        19        Fe     tau(  19) = (   0.0003610   0.0003093   1.1437492  )
        20        Fe     tau(  20) = (   0.2507120   0.3054366   1.3345052  )
        21        S      tau(  21) = (   0.1037046   0.2286949   1.1448048  )
        22        S      tau(  22) = (   0.3972879   0.3818884   1.1434245  )
        23        S      tau(  23) = (   0.1465620   0.5341109   1.3342793  )
        24        S      tau(  24) = (   0.3540327   0.0767790   1.3342894  )
        25        Fe     tau(  25) = (  -0.0000643   0.6106964   0.0000037  )
        26        Fe     tau(  26) = (   0.2498922   0.9160836   0.1902035  )
        27        S      tau(  27) = (   0.1034766   0.8392972  -0.0000012  )
        28        S      tau(  28) = (   0.3962761   0.9924075  -0.0000015  )
        29        S      tau(  29) = (   0.1464562   1.1445461   0.1902272  )
        30        S      tau(  30) = (   0.3533612   0.6874197   0.1905600  )
        31        Fe     tau(  31) = (  -0.0001941   0.6109928   0.3792791  )
        32        Fe     tau(  32) = (   0.2479108   0.9166759   0.5698297  )
        33        S      tau(  33) = (   0.1018313   0.8405450   0.3801950  )
        34        S      tau(  34) = (   0.3956477   0.9925795   0.3807815  )
        35        S      tau(  35) = (   0.1461889   1.1443014   0.5719030  )
        36        S      tau(  36) = (   0.3462757   0.6880080   0.5678178  )
        37        Fe     tau(  37) = (   0.0001981   0.6110854   0.7623208  )
        38        Fe     tau(  38) = (   0.2479067   0.9166766   0.9548199  )
        39        S      tau(  39) = (   0.1024678   0.8401980   0.7623308  )
        40        S      tau(  40) = (   0.4007099   0.9905753   0.7623248  )
        41        S      tau(  41) = (   0.1461904   1.1442974   0.9527437  )
        42        S      tau(  42) = (   0.3462943   0.6879802   0.9567876  )
        43        Fe     tau(  43) = (  -0.0001960   0.6109920   1.1453653  )
        44        Fe     tau(  44) = (   0.2498888   0.9160837   1.3344464  )
        45        S      tau(  45) = (   0.1018353   0.8405402   1.1444470  )
        46        S      tau(  46) = (   0.3956466   0.9925749   1.1438640  )
        47        S      tau(  47) = (   0.1464568   1.1445454   1.3344157  )
        48        S      tau(  48) = (   0.3533652   0.6874168   1.3340759  )
        49        Fe     tau(  49) = (   0.5001529   0.0001424   0.0000000  )
        50        Fe     tau(  50) = (   0.7503449   0.3052557   0.1902456  )
        51        S      tau(  51) = (   0.6039130   0.2287168  -0.0000013  )
        52        S      tau(  52) = (   0.8965399   0.3820279  -0.0000011  )
        53        S      tau(  53) = (   0.6466454   0.5341347   0.1904422  )
        54        S      tau(  54) = (   0.8538122   0.0765651   0.1902624  )
        55        Fe     tau(  55) = (   0.5001850   0.0001856   0.3808757  )
        56        Fe     tau(  56) = (   0.7526614   0.3049428   0.5697743  )
        57        S      tau(  57) = (   0.6047315   0.2285341   0.3808818  )
        58        S      tau(  58) = (   0.8985477   0.3817061   0.3798377  )
        59        S      tau(  59) = (   0.6548254   0.5339500   0.5663504  )
        60        S      tau(  60) = (   0.8543644   0.0764494   0.5712513  )
        61        Fe     tau(  61) = (   0.5009343   0.0021044   0.7623230  )
        62        Fe     tau(  62) = (   0.7526655   0.3049381   0.9548765  )
        63        S      tau(  63) = (   0.6080716   0.2284208   0.7623286  )
        64        S      tau(  64) = (   0.8981583   0.3827233   0.7623305  )
        65        S      tau(  65) = (   0.6547987   0.5339634   0.9582568  )
        66        S      tau(  66) = (   0.8543639   0.0764511   0.9533957  )
        67        Fe     tau(  67) = (   0.5001850   0.0001852   1.1437694  )
        68        Fe     tau(  68) = (   0.7503479   0.3052556   1.3344043  )
        69        S      tau(  69) = (   0.6047326   0.2285371   1.1437649  )
        70        S      tau(  70) = (   0.8985436   0.3817103   1.1448055  )
        71        S      tau(  71) = (   0.6466405   0.5341378   1.3341938  )
        72        S      tau(  72) = (   0.8538114   0.0765656   1.3343806  )
        73        Fe     tau(  73) = (   0.4999971   0.6106563   0.0000043  )
        74        Fe     tau(  74) = (   0.7493083   0.9160199   0.1903065  )
        75        S      tau(  75) = (   0.6034058   0.8393700  -0.0000021  )
        76        S      tau(  76) = (   0.8959426   0.9924226  -0.0000014  )
        77        S      tau(  77) = (   0.6461891   1.1443997   0.1905045  )
        78        S      tau(  78) = (   0.8532542   0.6876144   0.1903900  )
        79        Fe     tau(  79) = (   0.5000840   0.6108373   0.3831508  )
        80        Fe     tau(  80) = (   0.7494835   0.9181001   0.5718799  )
        81        S      tau(  81) = (   0.6027476   0.8401910   0.3820464  )
        82        S      tau(  82) = (   0.8962857   0.9926260   0.3807065  )
        83        S      tau(  83) = (   0.6469186   1.1452005   0.5713411  )
        84        S      tau(  84) = (   0.8515956   0.6850648   0.5705773  )
        85        Fe     tau(  85) = (   0.7494813   0.9180947   0.9527648  )
        86        S      tau(  86) = (   0.6021841   0.8439106   0.7623105  )
        87        S      tau(  87) = (   0.8959376   0.9925654   0.7623259  )
        88        S      tau(  88) = (   0.6469198   1.1451952   0.9533069  )
        89        S      tau(  89) = (   0.8515808   0.6850493   0.9540744  )
        90        Fe     tau(  90) = (   0.5000839   0.6108374   1.1415423  )
        91        Fe     tau(  91) = (   0.7493085   0.9160213   1.3343390  )
        92        S      tau(  92) = (   0.6027402   0.8401770   1.1426038  )
        93        S      tau(  93) = (   0.8962835   0.9926242   1.1439361  )
        94        S      tau(  94) = (   0.6461891   1.1443985   1.3341377  )
        95        S      tau(  95) = (   0.8532535   0.6876108   1.3342574  )
        96        H      tau(  96) = (   0.4528395   0.5065796   0.7623299  )

   Crystallographic axes

     site n.     atom                  positions (cryst. coord.)
         1        Fe     tau(   1) = (  0.0000791  0.0000505  0.0000004  )
         2        Fe     tau(   2) = (  0.2507120  0.2501495  0.1247120  )
         3        S      tau(   3) = (  0.1040521  0.1873304 -0.0000008  )
         4        S      tau(   4) = (  0.3966387  0.3128739 -0.0000012  )
         5        S      tau(   5) = (  0.1465616  0.4374261  0.1248607  )
         6        S      tau(   6) = (  0.3540329  0.0628801  0.1248506  )
         7        Fe     tau(   7) = (  0.0003612  0.0002537  0.2498255  )
         8        Fe     tau(   8) = (  0.2498161  0.2494094  0.3739664  )
         9        S      tau(   9) = (  0.1037037  0.1872965  0.2491330  )
        10        S      tau(  10) = (  0.3972819  0.3127510  0.2500428  )
        11        S      tau(  11) = (  0.1479395  0.4408035  0.3735484  )
        12        S      tau(  12) = (  0.3535631  0.0619087  0.3743802  )
        13        Fe     tau(  13) = ( -0.0000087  0.0001856  0.5000008  )
        14        Fe     tau(  14) = (  0.2498192  0.2494117  0.6260330  )
        15        S      tau(  15) = (  0.1012350  0.1870511  0.5000018  )
        16        S      tau(  16) = (  0.3892049  0.2983307  0.4999978  )
        17        S      tau(  17) = (  0.1479512  0.4408140  0.6264581  )
        18        S      tau(  18) = (  0.3535625  0.0619114  0.6256214  )
        19        Fe     tau(  19) = (  0.0003610  0.0002533  0.7501739  )
        20        Fe     tau(  20) = (  0.2507120  0.2501483  0.8752889  )
        21        S      tau(  21) = (  0.1037046  0.1872980  0.7508662  )
        22        S      tau(  22) = (  0.3972879  0.3127613  0.7499609  )
        23        S      tau(  23) = (  0.1465620  0.4374294  0.8751407  )
        24        S      tau(  24) = (  0.3540327  0.0628810  0.8751473  )
        25        Fe     tau(  25) = ( -0.0000643  0.5001519  0.0000024  )
        26        Fe     tau(  26) = (  0.2498922  0.7502598  0.1247526  )
        27        S      tau(  27) = (  0.1034766  0.6873728 -0.0000008  )
        28        S      tau(  28) = (  0.3962761  0.8127680 -0.0000010  )
        29        S      tau(  29) = (  0.1464562  0.9373674  0.1247682  )
        30        S      tau(  30) = (  0.3533612  0.5629873  0.1249865  )
        31        Fe     tau(  31) = ( -0.0001941  0.5003947  0.2487654  )
        32        Fe     tau(  32) = (  0.2479108  0.7507449  0.3737457  )
        33        S      tau(  33) = (  0.1018313  0.6883947  0.2493662  )
        34        S      tau(  34) = (  0.3956477  0.8129089  0.2497509  )
        35        S      tau(  35) = (  0.1461889  0.9371670  0.3751056  )
        36        S      tau(  36) = (  0.3462757  0.5634691  0.3724261  )
        37        Fe     tau(  37) = (  0.0001981  0.5004705  0.4999987  )
        38        Fe     tau(  38) = (  0.2479067  0.7507455  0.6262570  )
        39        S      tau(  39) = (  0.1024678  0.6881106  0.5000052  )
        40        S      tau(  40) = (  0.4007099  0.8112675  0.5000013  )
        41        S      tau(  41) = (  0.1461904  0.9371637  0.6248952  )
        42        S      tau(  42) = (  0.3462943  0.5634463  0.6275476  )
        43        Fe     tau(  43) = ( -0.0001960  0.5003940  0.7512339  )
        44        Fe     tau(  44) = (  0.2498888  0.7502598  0.8752503  )
        45        S      tau(  45) = (  0.1018353  0.6883908  0.7506315  )
        46        S      tau(  46) = (  0.3956466  0.8129051  0.7502491  )
        47        S      tau(  47) = (  0.1464568  0.9373668  0.8752302  )
        48        S      tau(  48) = (  0.3533652  0.5629849  0.8750073  )
        49        Fe     tau(  49) = (  0.5001529  0.0001166  0.0000000  )
        50        Fe     tau(  50) = (  0.7503449  0.2500002  0.1247802  )
        51        S      tau(  51) = (  0.6039130  0.1873159 -0.0000008  )
        52        S      tau(  52) = (  0.8965399  0.3128755 -0.0000007  )
        53        S      tau(  53) = (  0.6466454  0.4374489  0.1249092  )
        54        S      tau(  54) = (  0.8538122  0.0627058  0.1247912  )
        55        Fe     tau(  55) = (  0.5001850  0.0001520  0.2498127  )
        56        Fe     tau(  56) = (  0.7526614  0.2497440  0.3737093  )
        57        S      tau(  57) = (  0.6047315  0.1871663  0.2498167  )
        58        S      tau(  58) = (  0.8985477  0.3126120  0.2491318  )
        59        S      tau(  59) = (  0.6548254  0.4372976  0.3714637  )
        60        S      tau(  60) = (  0.8543644  0.0626110  0.3746781  )
        61        Fe     tau(  61) = (  0.5009343  0.0017234  0.5000001  )
        62        Fe     tau(  62) = (  0.7526655  0.2497401  0.6262941  )
        63        S      tau(  63) = (  0.6080716  0.1870735  0.5000039  )
        64        S      tau(  64) = (  0.8981583  0.3134451  0.5000051  )
        65        S      tau(  65) = (  0.6547987  0.4373086  0.6285112  )
        66        S      tau(  66) = (  0.8543639  0.0626124  0.6253228  )
        67        Fe     tau(  67) = (  0.5001850  0.0001517  0.7501871  )
        68        Fe     tau(  68) = (  0.7503479  0.2500001  0.8752227  )
        69        S      tau(  69) = (  0.6047326  0.1871688  0.7501842  )
        70        S      tau(  70) = (  0.8985436  0.3126154  0.7508666  )
        71        S      tau(  71) = (  0.6466405  0.4374515  0.8750846  )
        72        S      tau(  72) = (  0.8538114  0.0627062  0.8752071  )
        73        Fe     tau(  73) = (  0.4999971  0.5001191  0.0000028  )
        74        Fe     tau(  74) = (  0.7493083  0.7502076  0.1248202  )
        75        S      tau(  75) = (  0.6034058  0.6874324 -0.0000014  )
        76        S      tau(  76) = (  0.8959426  0.8127804 -0.0000009  )
        77        S      tau(  77) = (  0.6461891  0.9372476  0.1249500  )
        78        S      tau(  78) = (  0.8532542  0.5631467  0.1248749  )
        79        Fe     tau(  79) = (  0.5000840  0.5002673  0.2513048  )
        80        Fe     tau(  80) = (  0.7494835  0.7519113  0.3750904  )
        81        S      tau(  81) = (  0.6027476  0.6881048  0.2505805  )
        82        S      tau(  82) = (  0.8962857  0.8129470  0.2497016  )
        83        S      tau(  83) = (  0.6469186  0.9379034  0.3747370  )
        84        S      tau(  84) = (  0.8515956  0.5610586  0.3742361  )
        85        Fe     tau(  85) = (  0.7494813  0.7519068  0.6249091  )
        86        S      tau(  86) = (  0.6021841  0.6911511  0.4999919  )
        87        S      tau(  87) = (  0.8959376  0.8128974  0.5000021  )
        88        S      tau(  88) = (  0.6469198  0.9378991  0.6252646  )
        89        S      tau(  89) = (  0.8515808  0.5610459  0.6257680  )
        90        Fe     tau(  90) = (  0.5000839  0.5002674  0.7487264  )
        91        Fe     tau(  91) = (  0.7493085  0.7502088  0.8751798  )
        92        S      tau(  92) = (  0.6027402  0.6880933  0.7494226  )
        93        S      tau(  93) = (  0.8962835  0.8129455  0.7502965  )
        94        S      tau(  94) = (  0.6461891  0.9372466  0.8750478  )
        95        S      tau(  95) = (  0.8532535  0.5631438  0.8751263  )
        96        H      tau(  96) = (  0.4528395  0.4148817  0.5000047  )

     number of k points=     8  Marzari-Vanderbilt smearing, width (Ry)=  0.0150
                       cart. coord. in units 2pi/alat
        k(    1) = (   0.0000000   0.0000000   0.0000000), wk =   0.0833333
        k(    2) = (   0.0000000   0.0000000   0.2186301), wk =   0.1666667
        k(    3) = (   0.0000000  -0.4094931   0.0000000), wk =   0.0833333
        k(    4) = (   0.0000000  -0.4094931   0.2186301), wk =   0.1666667
        k(    5) = (  -0.5000000   0.0000000   0.0000000), wk =   0.0833333
        k(    6) = (  -0.5000000   0.0000000   0.2186301), wk =   0.1666667
        k(    7) = (  -0.5000000  -0.4094931   0.0000000), wk =   0.0833333
        k(    8) = (  -0.5000000  -0.4094931   0.2186301), wk =   0.1666667

                       cryst. coord.
        k(    1) = (   0.0000000   0.0000000   0.0000000), wk =   0.0833333
        k(    2) = (   0.0000000   0.0000000   0.3333333), wk =   0.1666667
        k(    3) = (   0.0000000  -0.5000000   0.0000000), wk =   0.0833333
        k(    4) = (   0.0000000  -0.5000000   0.3333333), wk =   0.1666667
        k(    5) = (  -0.5000000   0.0000000   0.0000000), wk =   0.0833333
        k(    6) = (  -0.5000000   0.0000000   0.3333333), wk =   0.1666667
        k(    7) = (  -0.5000000  -0.5000000   0.0000000), wk =   0.0833333
        k(    8) = (  -0.5000000  -0.5000000   0.3333333), wk =   0.1666667

     Dense  grid:   553421 G-vectors     FFT dimensions: (  90, 108, 128)

     Dynamical RAM for                 wfc:     558.42 MB

     Dynamical RAM for     wfc (w. buffer):    9493.18 MB

     Dynamical RAM for           str. fact:      25.33 MB

     Dynamical RAM for           local pot:       0.00 MB

     Dynamical RAM for          nlocal pot:    1810.39 MB

     Dynamical RAM for                qrad:       3.73 MB

     Dynamical RAM for          rho,v,vnew:     107.62 MB

     Dynamical RAM for               rhoin:      35.87 MB

     Dynamical RAM for            rho*nmix:     405.34 MB

     Dynamical RAM for           G-vectors:      35.89 MB

     Dynamical RAM for          h,s,v(r/c):      51.24 MB

     Dynamical RAM for          <psi|beta>:      13.84 MB

     Dynamical RAM for                 psi:    1116.84 MB

     Dynamical RAM for                hpsi:    1116.84 MB

     Dynamical RAM for      wfcinit/wfcrot:    1123.25 MB

     Estimated static dynamical RAM per process >      11.33 GB

     Estimated max dynamical RAM per process >      13.97 GB
     Generating pointlists ...
     new r_m :   0.1010 (alat units)  1.6956 (a.u.) for type    1
     new r_m :   0.0643 (alat units)  1.0798 (a.u.) for type    2
     new r_m :   0.0643 (alat units)  1.0798 (a.u.) for type    3

     Initial potential from superposition of free atoms

     starting charge     880.9860, renormalised to     881.0000
     Starting wfcs are  567 randomized atomic wfcs

     total cpu time spent up to now is       31.4 secs

     per-process dynamical memory: 10359.8 Mb

     Self-consistent Calculation
[tb_dev] Currently allocated     3.22E+01 Mbytes, locked:    0 /   3
[tb_pin] Currently allocated     0.00E+00 Mbytes, locked:    0 /   0

     iteration #  1     ecut=    60.00 Ry     beta= 0.20
     Davidson diagonalization with overlap

---- Real-time Memory Report at c_bands before calling an iterative solver
         12233 MiB given to the printing process from OS
         10150 MiB allocation reported by mallinfo(arena+hblkhd)
         25013 MiB available memory on the node where the printing process lives
     GPU memory used/free/total (MiB): 26080 / 14361 / 40441
------------------
     ethr =  1.00E-02,  avg # of iterations =  2.0

     total cpu time spent up to now is       67.3 secs

     total energy              =   -9183.19165333 Ry
     estimated scf accuracy    <      16.55512967 Ry

     total magnetization       =     1.13 Bohr mag/cell
     absolute magnetization    =    12.92 Bohr mag/cell
[tb_dev] Currently allocated     0.00E+00 Mbytes, locked:    0 /   0
[tb_pin] Currently allocated     0.00E+00 Mbytes, locked:    0 /   0

     iteration #  2     ecut=    60.00 Ry     beta= 0.20
     Davidson diagonalization with overlap

---- Real-time Memory Report at c_bands before calling an iterative solver
         12308 MiB given to the printing process from OS
         10624 MiB allocation reported by mallinfo(arena+hblkhd)
         35162 MiB available memory on the node where the printing process lives
     GPU memory used/free/total (MiB): 28864 / 11577 / 40441
------------------
     ethr =  1.88E-03,  avg # of iterations =  2.0
     Spin Component #  1
     Minimization algorithm failed to find Fermi energy: reverting to bisection
     Possible cause: smearing is larger than the electronic band-gap.

     total cpu time spent up to now is       95.1 secs

     total energy              =   -9183.32875411 Ry
     estimated scf accuracy    <       5.89570591 Ry

     total magnetization       =     1.13 Bohr mag/cell
     absolute magnetization    =    12.35 Bohr mag/cell
[tb_dev] Currently allocated     0.00E+00 Mbytes, locked:    0 /   0
[tb_pin] Currently allocated     0.00E+00 Mbytes, locked:    0 /   0

     iteration #  3     ecut=    60.00 Ry     beta= 0.20
     Davidson diagonalization with overlap

---- Real-time Memory Report at c_bands before calling an iterative solver
         12417 MiB given to the printing process from OS
         10691 MiB allocation reported by mallinfo(arena+hblkhd)
         35475 MiB available memory on the node where the printing process lives
     GPU memory used/free/total (MiB): 28870 / 11571 / 40441
------------------
     ethr =  6.69E-04,  avg # of iterations =  2.0

     total cpu time spent up to now is      127.6 secs

     total energy              =   -9183.38578406 Ry
     estimated scf accuracy    <       1.63245540 Ry

     total magnetization       =     1.13 Bohr mag/cell
     absolute magnetization    =    10.12 Bohr mag/cell
[tb_dev] Currently allocated     0.00E+00 Mbytes, locked:    0 /   0
[tb_pin] Currently allocated     0.00E+00 Mbytes, locked:    0 /   0

     iteration #  4     ecut=    60.00 Ry     beta= 0.20
     Davidson diagonalization with overlap

---- Real-time Memory Report at c_bands before calling an iterative solver
         12502 MiB given to the printing process from OS
         10725 MiB allocation reported by mallinfo(arena+hblkhd)
         36030 MiB available memory on the node where the printing process lives
     GPU memory used/free/total (MiB): 28870 / 11571 / 40441
------------------
     ethr =  1.85E-04,  avg # of iterations =  4.1

     total cpu time spent up to now is      188.4 secs

     total energy              =   -9183.47313108 Ry
     estimated scf accuracy    <       0.25026960 Ry

     total magnetization       =     1.13 Bohr mag/cell
     absolute magnetization    =     6.37 Bohr mag/cell
[tb_dev] Currently allocated     0.00E+00 Mbytes, locked:    0 /   0
[tb_pin] Currently allocated     0.00E+00 Mbytes, locked:    0 /   0

     iteration #  5     ecut=    60.00 Ry     beta= 0.20
     Davidson diagonalization with overlap

---- Real-time Memory Report at c_bands before calling an iterative solver
         12571 MiB given to the printing process from OS
         10776 MiB allocation reported by mallinfo(arena+hblkhd)
         35822 MiB available memory on the node where the printing process lives
     GPU memory used/free/total (MiB): 28870 / 11571 / 40441
------------------
     ethr =  2.84E-05,  avg # of iterations =  9.1

     total cpu time spent up to now is      298.7 secs

     total energy              =   -9183.51504044 Ry
     estimated scf accuracy    <       0.03944290 Ry

     total magnetization       =     1.13 Bohr mag/cell
     absolute magnetization    =     4.49 Bohr mag/cell
[tb_dev] Currently allocated     0.00E+00 Mbytes, locked:    0 /   0
[tb_pin] Currently allocated     0.00E+00 Mbytes, locked:    0 /   0

     iteration #  6     ecut=    60.00 Ry     beta= 0.20
     Davidson diagonalization with overlap

---- Real-time Memory Report at c_bands before calling an iterative solver
         12645 MiB given to the printing process from OS
         10827 MiB allocation reported by mallinfo(arena+hblkhd)
         35800 MiB available memory on the node where the printing process lives
     GPU memory used/free/total (MiB): 28870 / 11571 / 40441
------------------
     ethr =  4.48E-06,  avg # of iterations =  2.8

     total cpu time spent up to now is      330.2 secs

     total energy              =   -9183.51927443 Ry
     estimated scf accuracy    <       0.01827043 Ry

     total magnetization       =     1.13 Bohr mag/cell
     absolute magnetization    =     3.92 Bohr mag/cell
[tb_dev] Currently allocated     0.00E+00 Mbytes, locked:    0 /   0
[tb_pin] Currently allocated     0.00E+00 Mbytes, locked:    0 /   0

     iteration #  7     ecut=    60.00 Ry     beta= 0.20
     Davidson diagonalization with overlap

---- Real-time Memory Report at c_bands before calling an iterative solver
         12713 MiB given to the printing process from OS
         10860 MiB allocation reported by mallinfo(arena+hblkhd)
         36030 MiB available memory on the node where the printing process lives
     GPU memory used/free/total (MiB): 28874 / 11567 / 40441
------------------
     ethr =  2.07E-06,  avg # of iterations =  2.7

     total cpu time spent up to now is      359.3 secs

     total energy              =   -9183.52071624 Ry
     estimated scf accuracy    <       0.00552742 Ry

     total magnetization       =     1.13 Bohr mag/cell
     absolute magnetization    =     3.04 Bohr mag/cell
[tb_dev] Currently allocated     0.00E+00 Mbytes, locked:    0 /   0
[tb_pin] Currently allocated     0.00E+00 Mbytes, locked:    0 /   0

     iteration #  8     ecut=    60.00 Ry     beta= 0.20
     Davidson diagonalization with overlap

---- Real-time Memory Report at c_bands before calling an iterative solver
         12780 MiB given to the printing process from OS
         10911 MiB allocation reported by mallinfo(arena+hblkhd)
         35539 MiB available memory on the node where the printing process lives
     GPU memory used/free/total (MiB): 28874 / 11567 / 40441
------------------
     ethr =  6.27E-07,  avg # of iterations =  4.3

     total cpu time spent up to now is      392.1 secs

     total energy              =   -9183.52203892 Ry
     estimated scf accuracy    <       0.00063554 Ry

     total magnetization       =     1.13 Bohr mag/cell
     absolute magnetization    =     2.49 Bohr mag/cell
[tb_dev] Currently allocated     0.00E+00 Mbytes, locked:    0 /   0
[tb_pin] Currently allocated     0.00E+00 Mbytes, locked:    0 /   0

     iteration #  9     ecut=    60.00 Ry     beta= 0.20
     Davidson diagonalization with overlap

---- Real-time Memory Report at c_bands before calling an iterative solver
         12873 MiB given to the printing process from OS
         10928 MiB allocation reported by mallinfo(arena+hblkhd)
         35625 MiB available memory on the node where the printing process lives
     GPU memory used/free/total (MiB): 28874 / 11567 / 40441
------------------
     ethr =  7.21E-08,  avg # of iterations =  4.8

     total cpu time spent up to now is      455.5 secs

     total energy              =   -9183.52220564 Ry
     estimated scf accuracy    <       0.00051211 Ry

     total magnetization       =     1.13 Bohr mag/cell
     absolute magnetization    =     2.40 Bohr mag/cell
[tb_dev] Currently allocated     0.00E+00 Mbytes, locked:    0 /   0
[tb_pin] Currently allocated     0.00E+00 Mbytes, locked:    0 /   0

     iteration # 10     ecut=    60.00 Ry     beta= 0.20
     Davidson diagonalization with overlap

---- Real-time Memory Report at c_bands before calling an iterative solver
         12942 MiB given to the printing process from OS
         10996 MiB allocation reported by mallinfo(arena+hblkhd)
         35411 MiB available memory on the node where the printing process lives
     GPU memory used/free/total (MiB): 28886 / 11555 / 40441
------------------
     ethr =  5.81E-08,  avg # of iterations =  3.1

     total cpu time spent up to now is      536.7 secs

     total energy              =   -9183.52231645 Ry
     estimated scf accuracy    <       0.00018830 Ry

     total magnetization       =     1.13 Bohr mag/cell
     absolute magnetization    =     2.35 Bohr mag/cell
[tb_dev] Currently allocated     0.00E+00 Mbytes, locked:    0 /   0
[tb_pin] Currently allocated     0.00E+00 Mbytes, locked:    0 /   0

     iteration # 11     ecut=    60.00 Ry     beta= 0.20
     Davidson diagonalization with overlap

---- Real-time Memory Report at c_bands before calling an iterative solver
         13026 MiB given to the printing process from OS
         11030 MiB allocation reported by mallinfo(arena+hblkhd)
         35433 MiB available memory on the node where the printing process lives
     GPU memory used/free/total (MiB): 28886 / 11555 / 40441
------------------
     ethr =  2.14E-08,  avg # of iterations =  3.1

     total cpu time spent up to now is      583.9 secs

     total energy              =   -9183.52235369 Ry
     estimated scf accuracy    <       0.00003641 Ry

     total magnetization       =     1.13 Bohr mag/cell
     absolute magnetization    =     2.37 Bohr mag/cell
[tb_dev] Currently allocated     0.00E+00 Mbytes, locked:    0 /   0
[tb_pin] Currently allocated     0.00E+00 Mbytes, locked:    0 /   0

     iteration # 12     ecut=    60.00 Ry     beta= 0.20
     Davidson diagonalization with overlap

---- Real-time Memory Report at c_bands before calling an iterative solver
         13060 MiB given to the printing process from OS
         11063 MiB allocation reported by mallinfo(arena+hblkhd)
         34654 MiB available memory on the node where the printing process lives
     GPU memory used/free/total (MiB): 28892 / 11549 / 40441
------------------
     ethr =  4.13E-09,  avg # of iterations =  4.8

     total cpu time spent up to now is      616.1 secs

     total energy              =   -9183.52236009 Ry
     estimated scf accuracy    <       0.00001482 Ry

     total magnetization       =     1.13 Bohr mag/cell
     absolute magnetization    =     2.38 Bohr mag/cell
[tb_dev] Currently allocated     0.00E+00 Mbytes, locked:    0 /   0
[tb_pin] Currently allocated     0.00E+00 Mbytes, locked:    0 /   0

     iteration # 13     ecut=    60.00 Ry     beta= 0.20
     Davidson diagonalization with overlap

---- Real-time Memory Report at c_bands before calling an iterative solver
         13127 MiB given to the printing process from OS
         11097 MiB allocation reported by mallinfo(arena+hblkhd)
         34922 MiB available memory on the node where the printing process lives
     GPU memory used/free/total (MiB): 28892 / 11549 / 40441
------------------
     ethr =  1.68E-09,  avg # of iterations =  4.4

     total cpu time spent up to now is      650.6 secs

     total energy              =   -9183.52236759 Ry
     estimated scf accuracy    <       0.00000605 Ry

     total magnetization       =     1.13 Bohr mag/cell
     absolute magnetization    =     2.41 Bohr mag/cell
[tb_dev] Currently allocated     0.00E+00 Mbytes, locked:    0 /   0
[tb_pin] Currently allocated     0.00E+00 Mbytes, locked:    0 /   0

     iteration # 14     ecut=    60.00 Ry     beta= 0.20
     Davidson diagonalization with overlap

---- Real-time Memory Report at c_bands before calling an iterative solver
         13194 MiB given to the printing process from OS
         11131 MiB allocation reported by mallinfo(arena+hblkhd)
         35022 MiB available memory on the node where the printing process lives
     GPU memory used/free/total (MiB): 28892 / 11549 / 40441
------------------
     ethr =  6.87E-10,  avg # of iterations =  3.6
     Spin Component #  2
     Minimization algorithm failed to find Fermi energy: reverting to bisection
     Possible cause: smearing is larger than the electronic band-gap.

     total cpu time spent up to now is      694.0 secs

     total energy              =   -9183.52236907 Ry
     estimated scf accuracy    <       0.00000249 Ry

     total magnetization       =     1.13 Bohr mag/cell
     absolute magnetization    =     2.42 Bohr mag/cell
[tb_dev] Currently allocated     0.00E+00 Mbytes, locked:    0 /   0
[tb_pin] Currently allocated     0.00E+00 Mbytes, locked:    0 /   0

     iteration # 15     ecut=    60.00 Ry     beta= 0.20
     Davidson diagonalization with overlap

---- Real-time Memory Report at c_bands before calling an iterative solver
         13194 MiB given to the printing process from OS
         11131 MiB allocation reported by mallinfo(arena+hblkhd)
         34743 MiB available memory on the node where the printing process lives
     GPU memory used/free/total (MiB): 28892 / 11549 / 40441
------------------
     ethr =  2.82E-10,  avg # of iterations =  3.5
     Spin Component #  2
     Minimization algorithm failed to find Fermi energy: reverting to bisection
     Possible cause: smearing is larger than the electronic band-gap.

     total cpu time spent up to now is      772.1 secs

     total energy              =   -9183.52236953 Ry
     estimated scf accuracy    <       0.00000118 Ry

     total magnetization       =     1.13 Bohr mag/cell
     absolute magnetization    =     2.42 Bohr mag/cell
[tb_dev] Currently allocated     0.00E+00 Mbytes, locked:    0 /   0
[tb_pin] Currently allocated     0.00E+00 Mbytes, locked:    0 /   0

     iteration # 16     ecut=    60.00 Ry     beta= 0.20
     Davidson diagonalization with overlap

---- Real-time Memory Report at c_bands before calling an iterative solver
         13194 MiB given to the printing process from OS
         11131 MiB allocation reported by mallinfo(arena+hblkhd)
         34847 MiB available memory on the node where the printing process lives
     GPU memory used/free/total (MiB): 28892 / 11549 / 40441
------------------
     ethr =  1.34E-10,  avg # of iterations =  5.3
     Spin Component #  2
     Minimization algorithm failed to find Fermi energy: reverting to bisection
     Possible cause: smearing is larger than the electronic band-gap.

     total cpu time spent up to now is      855.6 secs

     total energy              =   -9183.52237040 Ry
     estimated scf accuracy    <       0.00000037 Ry

     total magnetization       =     1.13 Bohr mag/cell
     absolute magnetization    =     2.43 Bohr mag/cell
[tb_dev] Currently allocated     0.00E+00 Mbytes, locked:    0 /   0
[tb_pin] Currently allocated     0.00E+00 Mbytes, locked:    0 /   0

     iteration # 17     ecut=    60.00 Ry     beta= 0.20
     Davidson diagonalization with overlap

---- Real-time Memory Report at c_bands before calling an iterative solver
         13194 MiB given to the printing process from OS
         11131 MiB allocation reported by mallinfo(arena+hblkhd)
         34769 MiB available memory on the node where the printing process lives
     GPU memory used/free/total (MiB): 28892 / 11549 / 40441
------------------
     ethr =  4.18E-11,  avg # of iterations =  2.2
     Spin Component #  2
     Minimization algorithm failed to find Fermi energy: reverting to bisection
     Possible cause: smearing is larger than the electronic band-gap.

     total cpu time spent up to now is      886.2 secs

     total energy              =   -9183.52237044 Ry
     estimated scf accuracy    <       0.00000024 Ry

     total magnetization       =     1.13 Bohr mag/cell
     absolute magnetization    =     2.43 Bohr mag/cell
[tb_dev] Currently allocated     0.00E+00 Mbytes, locked:    0 /   0
[tb_pin] Currently allocated     0.00E+00 Mbytes, locked:    0 /   0

     iteration # 18     ecut=    60.00 Ry     beta= 0.20
     Davidson diagonalization with overlap

---- Real-time Memory Report at c_bands before calling an iterative solver
         13194 MiB given to the printing process from OS
         11131 MiB allocation reported by mallinfo(arena+hblkhd)
         35032 MiB available memory on the node where the printing process lives
     GPU memory used/free/total (MiB): 28892 / 11549 / 40441
------------------
     ethr =  2.76E-11,  avg # of iterations =  5.2
     Spin Component #  2
     Minimization algorithm failed to find Fermi energy: reverting to bisection
     Possible cause: smearing is larger than the electronic band-gap.

     total cpu time spent up to now is      921.4 secs

     total energy              =   -9183.52237060 Ry
     estimated scf accuracy    <       0.00000005 Ry

     total magnetization       =     1.13 Bohr mag/cell
     absolute magnetization    =     2.43 Bohr mag/cell
[tb_dev] Currently allocated     0.00E+00 Mbytes, locked:    0 /   0
[tb_pin] Currently allocated     0.00E+00 Mbytes, locked:    0 /   0

     iteration # 19     ecut=    60.00 Ry     beta= 0.20
     Davidson diagonalization with overlap

---- Real-time Memory Report at c_bands before calling an iterative solver
         13194 MiB given to the printing process from OS
         11131 MiB allocation reported by mallinfo(arena+hblkhd)
         34694 MiB available memory on the node where the printing process lives
     GPU memory used/free/total (MiB): 28892 / 11549 / 40441
------------------
     ethr =  5.27E-12,  avg # of iterations =  5.1

     total cpu time spent up to now is      966.1 secs

     total energy              =   -9183.52237064 Ry
     estimated scf accuracy    <       0.00000002 Ry

     total magnetization       =     1.13 Bohr mag/cell
     absolute magnetization    =     2.43 Bohr mag/cell
[tb_dev] Currently allocated     0.00E+00 Mbytes, locked:    0 /   0
[tb_pin] Currently allocated     0.00E+00 Mbytes, locked:    0 /   0

     iteration # 20     ecut=    60.00 Ry     beta= 0.20
     Davidson diagonalization with overlap

---- Real-time Memory Report at c_bands before calling an iterative solver
         13194 MiB given to the printing process from OS
         11131 MiB allocation reported by mallinfo(arena+hblkhd)
         34706 MiB available memory on the node where the printing process lives
     GPU memory used/free/total (MiB): 28892 / 11549 / 40441
------------------
     ethr =  2.62E-12,  avg # of iterations =  1.4

     total cpu time spent up to now is     1032.0 secs

     total energy              =   -9183.52237064 Ry
     estimated scf accuracy    <       0.00000001 Ry

     total magnetization       =     1.13 Bohr mag/cell
     absolute magnetization    =     2.43 Bohr mag/cell
[tb_dev] Currently allocated     0.00E+00 Mbytes, locked:    0 /   0
[tb_pin] Currently allocated     0.00E+00 Mbytes, locked:    0 /   0

     iteration # 21     ecut=    60.00 Ry     beta= 0.20
     Davidson diagonalization with overlap

---- Real-time Memory Report at c_bands before calling an iterative solver
         13194 MiB given to the printing process from OS
         11131 MiB allocation reported by mallinfo(arena+hblkhd)
         34913 MiB available memory on the node where the printing process lives
     GPU memory used/free/total (MiB): 28892 / 11549 / 40441
------------------
     ethr =  1.18E-12,  avg # of iterations =  2.7
     Spin Component #  2
     Minimization algorithm failed to find Fermi energy: reverting to bisection
     Possible cause: smearing is larger than the electronic band-gap.
 
     Magnetic moment per site  (integrated on atomic sphere of radius R)
     atom   1 (R=0.101)  charge= 13.8328  magn= -0.0089
     atom   2 (R=0.101)  charge= 13.8328  magn= -0.0294
     atom   3 (R=0.064)  charge=  0.9823  magn=  0.0002
     atom   4 (R=0.064)  charge=  0.9830  magn=  0.0004
     atom   5 (R=0.064)  charge=  0.9826  magn=  0.0005
     atom   6 (R=0.064)  charge=  0.9826  magn=  0.0004
     atom   7 (R=0.101)  charge= 13.8332  magn= -0.0173
     atom   8 (R=0.101)  charge= 13.8385  magn=  0.0063
     atom   9 (R=0.064)  charge=  0.9832  magn= -0.0001
     atom  10 (R=0.064)  charge=  0.9829  magn= -0.0014
     atom  11 (R=0.064)  charge=  0.9820  magn= -0.0001
     atom  12 (R=0.064)  charge=  0.9828  magn=  0.0000
     atom  13 (R=0.101)  charge= 13.8365  magn= -0.0223
     atom  14 (R=0.101)  charge= 13.8385  magn=  0.0063
     atom  15 (R=0.064)  charge=  0.9828  magn= -0.0001
     atom  16 (R=0.064)  charge=  0.9923  magn=  0.0021
     atom  17 (R=0.064)  charge=  0.9820  magn= -0.0001
     atom  18 (R=0.064)  charge=  0.9828  magn=  0.0000
     atom  19 (R=0.101)  charge= 13.8332  magn= -0.0173
     atom  20 (R=0.101)  charge= 13.8328  magn= -0.0294
     atom  21 (R=0.064)  charge=  0.9832  magn= -0.0001
     atom  22 (R=0.064)  charge=  0.9829  magn= -0.0014
     atom  23 (R=0.064)  charge=  0.9826  magn=  0.0005
     atom  24 (R=0.064)  charge=  0.9826  magn=  0.0004
     atom  25 (R=0.101)  charge= 13.8321  magn= -0.0066
     atom  26 (R=0.101)  charge= 13.8337  magn= -0.0205
     atom  27 (R=0.064)  charge=  0.9828  magn=  0.0003
     atom  28 (R=0.064)  charge=  0.9827  magn=  0.0005
     atom  29 (R=0.064)  charge=  0.9827  magn=  0.0006
     atom  30 (R=0.064)  charge=  0.9826  magn= -0.0004
     atom  31 (R=0.101)  charge= 13.8381  magn=  0.0227
     atom  32 (R=0.101)  charge= 13.8310  magn=  0.0387
     atom  33 (R=0.064)  charge=  0.9826  magn=  0.0002
     atom  34 (R=0.064)  charge=  0.9821  magn= -0.0007
     atom  35 (R=0.064)  charge=  0.9831  magn=  0.0006
     atom  36 (R=0.064)  charge=  0.9860  magn=  0.0104
     atom  37 (R=0.101)  charge= 13.8289  magn= -0.0188
     atom  38 (R=0.101)  charge= 13.8309  magn=  0.0383
     atom  39 (R=0.064)  charge=  0.9824  magn=  0.0001
     atom  40 (R=0.064)  charge=  0.9797  magn=  0.0001
     atom  41 (R=0.064)  charge=  0.9831  magn=  0.0006
     atom  42 (R=0.064)  charge=  0.9860  magn=  0.0103
     atom  43 (R=0.101)  charge= 13.8381  magn=  0.0225
     atom  44 (R=0.101)  charge= 13.8337  magn= -0.0205
     atom  45 (R=0.064)  charge=  0.9826  magn=  0.0002
     atom  46 (R=0.064)  charge=  0.9821  magn= -0.0007
     atom  47 (R=0.064)  charge=  0.9827  magn=  0.0006
     atom  48 (R=0.064)  charge=  0.9826  magn= -0.0004
     atom  49 (R=0.101)  charge= 13.8330  magn= -0.0106
     atom  50 (R=0.101)  charge= 13.8326  magn= -0.0256
     atom  51 (R=0.064)  charge=  0.9825  magn=  0.0005
     atom  52 (R=0.064)  charge=  0.9828  magn=  0.0002
     atom  53 (R=0.064)  charge=  0.9825  magn= -0.0004
     atom  54 (R=0.064)  charge=  0.9825  magn=  0.0006
     atom  55 (R=0.101)  charge= 13.8332  magn= -0.0262
     atom  56 (R=0.101)  charge= 13.8335  magn=  0.0466
     atom  57 (R=0.064)  charge=  0.9818  magn= -0.0007
     atom  58 (R=0.064)  charge=  0.9826  magn=  0.0003
     atom  59 (R=0.064)  charge=  0.9864  magn=  0.0111
     atom  60 (R=0.064)  charge=  0.9830  magn=  0.0005
     atom  61 (R=0.101)  charge= 13.8283  magn=  0.0042
     atom  62 (R=0.101)  charge= 13.8335  magn=  0.0463
     atom  63 (R=0.064)  charge=  0.9821  magn=  0.0005
     atom  64 (R=0.064)  charge=  0.9827  magn=  0.0002
     atom  65 (R=0.064)  charge=  0.9864  magn=  0.0110
     atom  66 (R=0.064)  charge=  0.9830  magn=  0.0005
     atom  67 (R=0.101)  charge= 13.8332  magn= -0.0262
     atom  68 (R=0.101)  charge= 13.8326  magn= -0.0256
     atom  69 (R=0.064)  charge=  0.9818  magn= -0.0007
     atom  70 (R=0.064)  charge=  0.9826  magn=  0.0003
     atom  71 (R=0.064)  charge=  0.9825  magn= -0.0004
     atom  72 (R=0.064)  charge=  0.9825  magn=  0.0006
     atom  73 (R=0.101)  charge= 13.8320  magn= -0.0492
     atom  74 (R=0.101)  charge= 13.8320  magn= -0.0100
     atom  75 (R=0.064)  charge=  0.9829  magn=  0.0007
     atom  76 (R=0.064)  charge=  0.9821  magn=  0.0006
     atom  77 (R=0.064)  charge=  0.9827  magn=  0.0003
     atom  78 (R=0.064)  charge=  0.9829  magn=  0.0005
     atom  79 (R=0.101)  charge= 13.8068  magn=  0.4150
     atom  80 (R=0.101)  charge= 13.8280  magn=  0.0661
     atom  81 (R=0.064)  charge=  0.9827  magn= -0.0015
     atom  82 (R=0.064)  charge=  0.9830  magn=  0.0007
     atom  83 (R=0.064)  charge=  0.9831  magn= -0.0002
     atom  84 (R=0.064)  charge=  0.9820  magn= -0.0009
     atom  85 (R=0.101)  charge= 13.8280  magn=  0.0663
     atom  86 (R=0.064)  charge=  0.9849  magn=  0.0113
     atom  87 (R=0.064)  charge=  0.9823  magn= -0.0005
     atom  88 (R=0.064)  charge=  0.9831  magn= -0.0002
     atom  89 (R=0.064)  charge=  0.9820  magn= -0.0009
     atom  90 (R=0.101)  charge= 13.8069  magn=  0.4135
     atom  91 (R=0.101)  charge= 13.8320  magn= -0.0100
     atom  92 (R=0.064)  charge=  0.9827  magn= -0.0015
     atom  93 (R=0.064)  charge=  0.9830  magn=  0.0007
     atom  94 (R=0.064)  charge=  0.9827  magn=  0.0003
     atom  95 (R=0.064)  charge=  0.9829  magn=  0.0005
     atom  96 (R=0.064)  charge=  0.6477  magn=  0.0008

     total cpu time spent up to now is     1115.1 secs

     End of self-consistent calculation

 ------ SPIN UP ------------


          k = 0.0000 0.0000 0.0000 ( 69157 PWs)   bands (ev):

   -75.3385 -75.3366 -74.9512 -74.9509 -74.9128 -74.9124 -74.8909 -74.8906
   -74.8685 -74.8638 -74.8633 -74.8613 -74.8561 -74.8558 -74.8534 -74.8504
   -74.8489 -74.8488 -74.8485 -74.8480 -74.8471 -74.8469 -74.8459 -74.8453
   -74.8450 -74.8407 -74.8404 -74.8349 -74.8345 -74.8340 -74.8109 -41.3869
   -41.3841 -41.3742 -41.3717 -41.1691 -41.1681 -40.9925 -40.9908 -40.9852
   -40.9836 -40.9451 -40.9435 -40.9412 -40.9395 -40.9372 -40.9271 -40.9247
   -40.9232 -40.9231 -40.9229 -40.9214 -40.9203 -40.9195 -40.9180 -40.9179
   -40.9175 -40.9172 -40.9159 -40.9152 -40.9148 -40.9137 -40.9132 -40.9121
   -40.9114 -40.9022 -40.9014 -40.8784 -40.8543 -40.8516 -40.8509 -40.8477
   -40.8436 -40.8429 -40.8104 -40.8065 -40.8035 -40.7954 -40.7935 -40.7925
   -40.7905 -40.7880 -40.7879 -40.7875 -40.7874 -40.7857 -40.7851 -40.7848
   -40.7843 -40.7823 -40.7819 -40.7790 -40.7780 -40.7768 -40.7750 -40.7739
   -40.7738 -40.7733 -40.7728 -40.7679 -40.7646 -40.7646 -40.7619 -40.7608
   -40.7574 -40.7521 -40.7514 -40.7472 -40.7468 -40.7445 -40.7433 -40.7430
   -40.7409 -40.7395 -40.7386 -40.7379 -40.7338 -40.7336 -40.7321 -40.7286
   -40.7280 -40.7277 -40.7239 -40.7085  -4.3860  -3.8779  -3.8551  -3.5141
    -3.4527  -3.1793  -3.0555  -3.0507  -3.0377  -2.9791  -2.9313  -2.7513
    -2.6643  -2.6624  -2.6490  -2.6266  -2.6185  -2.5648  -2.5514  -2.4905
    -2.4798  -2.3771  -2.3699  -2.3430  -2.3361  -2.2461  -2.2457  -2.1145
    -2.0934  -2.0361  -1.9858  -1.9505  -1.4104  -1.3096  -1.0438  -0.9387
    -0.8900  -0.8575  -0.6425  -0.5780  -0.5342  -0.4514  -0.4491  -0.3773
    -0.3448  -0.2701  -0.2447  -0.2162  -0.0621  -0.0256  -0.0202   0.0959
     0.0973   0.2625   0.2826   0.3030   0.3030   0.3552   0.3980   0.4513
     0.4807   0.5250   0.6796   0.7122   4.3824   4.6938   4.7364   4.8890
     5.1340   5.1425   5.1461   5.1652   5.1942   5.2240   5.2253   5.2567
     5.2627   5.3065   5.3110   5.3154   5.3904   5.5311   5.5574   5.6053
     5.6804   5.6849   5.6920   5.7706   5.8603   5.8846   5.8863   5.9198
     5.9241   5.9280   5.9415   5.9490   5.9820   5.9868   6.0298   6.0784
     6.0855   6.1810   6.2273   6.2901   6.5280   6.5803   6.5895   6.6072
     6.6813   6.7578   6.7578   6.7978   6.8157   6.8310   6.8321   6.8746
     6.9769   6.9770   7.0140   7.0855   7.1269   7.1459   7.1763   7.1892
     7.1950   7.2051   7.2151   7.2395   7.3056   7.3564   7.3610   7.4410
     7.6656   7.7521   7.7999   7.8061   7.8221   7.8273   7.8466   7.8528
     7.8607   7.8618   7.8659   7.8787   7.8845   7.8898   7.8948   7.9077
     7.9464   7.9480   7.9936   8.0700   8.1267   8.1729   8.1907   8.2600
     8.2751   8.2974   8.3105   8.3410   8.3637   8.4121   8.4528   8.4601
     8.4969   8.5015   8.5162   8.5210   8.5369   8.5460   8.5767   8.6124
     8.6189   8.6464   8.6671   8.6707   8.6759   8.7172   8.7272   8.7365
     8.7512   8.7697   8.8062   8.8076   8.8493   8.8658   8.9185   8.9538
     8.9596   8.9636   9.0385   9.1556   9.2607   9.3210   9.3525   9.3625
     9.4065   9.4318   9.4840   9.4941   9.5082   9.5561   9.5571   9.5860
     9.5898   9.6127   9.6138   9.6227   9.6546   9.6585   9.8468   9.8542
     9.8703   9.9793  10.0900  10.1879  10.2272  10.2335  10.3780  10.3935
    10.4118  10.4322  10.5008  10.6155  10.6836  10.6902  10.7276  10.7568
    10.7573  10.8238  10.8329  10.8361  10.8472  10.8544  10.8571  10.8859
    10.8881  10.8938  10.8955  10.9072  10.9251  10.9496  10.9757  10.9836
    11.0098  11.0479  11.1191  11.1265  11.1585  11.1620  11.1786  11.1922
    11.1964  11.2276  11.2622  11.2728  11.2736  11.2825  11.2889  11.2953
    11.3028  11.3044  11.3132  11.3248  11.3509  11.3668  11.3757  11.3822
    11.3901  11.3982  11.3986  11.4094  11.4220  11.4358  11.4809  11.4847
    11.4985  11.5268  11.5306  11.6022  11.6090  11.6140  11.6550  11.6619
    11.6776  11.6789  11.6937  11.7025  11.7125  11.7396  11.7666  11.7895
    11.8175  11.8476  11.9038  11.9156  11.9212  11.9540  11.9583  11.9674
    11.9889  11.9897  12.0044  12.0052  12.0641  12.0893  12.1057  12.1175
    12.1605  12.1797  12.2016  12.2417  12.2680  12.2856  12.2904  12.3179
    12.3279  13.1136  13.1430  13.3116  13.3219  13.3481  13.3507  13.3731
    13.4341  13.4464  13.5685  13.6363  13.6443  13.6459  13.6552  13.6905
    13.7040  13.7450  13.7568  13.7913  13.8299  13.8326  13.8359  13.8485
    13.8522  13.8882  13.8965  13.9187  13.9322  13.9391  13.9513  13.9637
    13.9647  14.0069  14.0680  14.0974  14.1193  14.1487  14.1517  14.1567
    14.1586  14.1695  14.1717  14.1764  14.2236  14.2329  14.2647  14.3021
    14.3191  14.3332  14.3674  14.3800  14.4059  14.4264  14.4470  14.4780
    14.5107  14.5393  14.5417  14.6490  14.6737  14.7177  14.7286  14.7582
    14.7741  14.7758  14.7869  14.8205  14.8213  14.8415  14.8817  14.8979
    14.9495  14.9501  14.9621  14.9865  15.0278  15.0665  15.0704  15.1542
    15.1734  15.2443  15.2502  15.2938  15.3717  15.3931  15.4341  15.4806
    15.4883

     occupation numbers 
     1.0000   1.0000   1.0000   1.0000   1.0000   1.0000   1.0000   1.0000
     1.0000   1.0000   1.0000   1.0000   1.0000   1.0000   1.0000   1.0000
     1.0000   1.0000   1.0000   1.0000   1.0000   1.0000   1.0000   1.0000
     1.0000   1.0000   1.0000   1.0000   1.0000   1.0000   1.0000   1.0000
     1.0000   1.0000   1.0000   1.0000   1.0000   1.0000   1.0000   1.0000
     1.0000   1.0000   1.0000   1.0000   1.0000   1.0000   1.0000   1.0000
     1.0000   1.0000   1.0000   1.0000   1.0000   1.0000   1.0000   1.0000
     1.0000   1.0000   1.0000   1.0000   1.0000   1.0000   1.0000   1.0000
     1.0000   1.0000   1.0000   1.0000   1.0000   1.0000   1.0000   1.0000
     1.0000   1.0000   1.0000   1.0000   1.0000   1.0000   1.0000   1.0000
     1.0000   1.0000   1.0000   1.0000   1.0000   1.0000   1.0000   1.0000
     1.0000   1.0000   1.0000   1.0000   1.0000   1.0000   1.0000   1.0000
     1.0000   1.0000   1.0000   1.0000   1.0000   1.0000   1.0000   1.0000
     1.0000   1.0000   1.0000   1.0000   1.0000   1.0000   1.0000   1.0000
     1.0000   1.0000   1.0000   1.0000   1.0000   1.0000   1.0000   1.0000
     1.0000   1.0000   1.0000   1.0000   1.0000   1.0000   1.0000   1.0000
     1.0000   1.0000   1.0000   1.0000   1.0000   1.0000   1.0000   1.0000
     1.0000   1.0000   1.0000   1.0000   1.0000   1.0000   1.0000   1.0000
     1.0000   1.0000   1.0000   1.0000   1.0000   1.0000   1.0000   1.0000
     1.0000   1.0000   1.0000   1.0000   1.0000   1.0000   1.0000   1.0000
     1.0000   1.0000   1.0000   1.0000   1.0000   1.0000   1.0000   1.0000
     1.0000   1.0000   1.0000   1.0000   1.0000   1.0000   1.0000   1.0000
     1.0000   1.0000   1.0000   1.0000   1.0000   1.0000   1.0000   1.0000
     1.0000   1.0000   1.0000   1.0000   1.0000   1.0000   1.0000   1.0000
     1.0000   1.0000   1.0000   1.0000   1.0000   1.0000   1.0000   1.0000
     1.0000   1.0000   1.0000   1.0000   1.0000   1.0000   1.0000   1.0000
     1.0000   1.0000   1.0000   1.0000   1.0000   1.0000   1.0000   1.0000
     1.0000   1.0000   1.0000   1.0000   1.0000   1.0000   1.0000   1.0000
     1.0000   1.0000   1.0000   1.0000   1.0000   1.0000   1.0000   1.0000
     1.0000   1.0000   1.0000   1.0000   1.0000   1.0000   1.0000   1.0000
     1.0000   1.0000   1.0000   1.0000   1.0000   1.0000   1.0000   1.0000
     1.0000   1.0000   1.0000   1.0000   1.0000   1.0000   1.0000   1.0000
     1.0000   1.0000   1.0000   1.0000   1.0000   1.0000   1.0000   1.0000
     1.0000   1.0000   1.0000   1.0000   1.0000   1.0000   1.0000   1.0000
     1.0000   1.0000   1.0000   1.0000   1.0000   1.0000   1.0000   1.0000
     1.0000   1.0000   1.0000   1.0000   1.0000   1.0000   1.0000   1.0000
     1.0000   1.0000   1.0000   1.0000   1.0000   1.0000   1.0000   1.0000
     1.0000   1.0000   1.0000   1.0000   1.0000   1.0000   1.0000   1.0000
     1.0000   1.0000   1.0000   1.0000   1.0000   1.0000   1.0000   1.0000
     1.0000   1.0000   1.0000   1.0000   1.0000   1.0000   1.0000   1.0000
     1.0000   1.0000   1.0000   1.0000   1.0000   1.0000   1.0000   1.0000
     1.0000   1.0000   1.0000   1.0000   1.0000   1.0000   1.0000   1.0000
     1.0000   1.0000   1.0000   1.0000   1.0000   1.0000   1.0000   1.0000
     1.0000   1.0000   1.0000   1.0000   1.0000   1.0000   1.0000   1.0000
     1.0000   1.0000   1.0000   1.0000   1.0000   1.0000   1.0000   1.0000
     1.0000   1.0000   1.0000   1.0000   1.0000   1.0000   1.0000   1.0000
     1.0000   1.0000   1.0000   1.0000   1.0000   1.0000   1.0000   1.0000
     1.0000   1.0000   1.0000   1.0000   1.0000   1.0000   1.0000   1.0000
     1.0000   1.0000   1.0000   1.0000   1.0000   1.0000   1.0000   1.0000
     1.0000   1.0000   1.0000   1.0000   1.0000   1.0000   1.0000   1.0000
     1.0000   1.0000   1.0000   1.0000   1.0000   1.0000   1.0000   1.0000
     1.0000   1.0000   1.0000   1.0000   1.0000   1.0000   1.0000   1.0000
     1.0000   1.0000   1.0000   1.0000   1.0000   1.0000   1.0000   1.0000
     1.0000   1.0000   1.0000   1.0000   1.0000   1.0000   1.0000   1.0000
     1.0000   1.0000   1.0000   1.0000   1.0001   1.0001   1.0001   1.0002
     1.0003   0.1411   0.0955   0.0048   0.0038   0.0021   0.0020   0.0012
     0.0002   0.0002   0.0000   0.0000   0.0000   0.0000   0.0000   0.0000
     0.0000   0.0000   0.0000   0.0000   0.0000   0.0000   0.0000   0.0000
     0.0000   0.0000   0.0000   0.0000   0.0000   0.0000   0.0000   0.0000
     0.0000   0.0000   0.0000   0.0000   0.0000   0.0000   0.0000   0.0000
     0.0000   0.0000   0.0000   0.0000   0.0000   0.0000   0.0000   0.0000
     0.0000   0.0000   0.0000   0.0000   0.0000   0.0000   0.0000   0.0000
     0.0000   0.0000   0.0000   0.0000   0.0000   0.0000   0.0000   0.0000
     0.0000   0.0000   0.0000   0.0000   0.0000   0.0000   0.0000   0.0000
     0.0000   0.0000   0.0000   0.0000   0.0000   0.0000   0.0000   0.0000
     0.0000   0.0000   0.0000   0.0000   0.0000   0.0000   0.0000   0.0000
     0.0000

          k = 0.0000 0.0000 0.2186 ( 69203 PWs)   bands (ev):

   -75.3387 -75.3368 -74.9513 -74.9510 -74.9129 -74.9125 -74.8909 -74.8908
   -74.8686 -74.8639 -74.8634 -74.8615 -74.8561 -74.8559 -74.8535 -74.8505
   -74.8491 -74.8489 -74.8485 -74.8483 -74.8471 -74.8468 -74.8463 -74.8454
   -74.8452 -74.8408 -74.8406 -74.8350 -74.8348 -74.8341 -74.8110 -41.3872
   -41.3847 -41.3743 -41.3718 -41.1695 -41.1685 -40.9928 -40.9912 -40.9853
   -40.9843 -40.9452 -40.9439 -40.9412 -40.9402 -40.9374 -40.9273 -40.9245
   -40.9234 -40.9232 -40.9230 -40.9217 -40.9208 -40.9199 -40.9189 -40.9183
   -40.9173 -40.9172 -40.9167 -40.9158 -40.9151 -40.9146 -40.9144 -40.9130
   -40.9115 -40.9026 -40.9021 -40.8789 -40.8547 -40.8518 -40.8514 -40.8479
   -40.8440 -40.8435 -40.8110 -40.8064 -40.8039 -40.7958 -40.7935 -40.7930
   -40.7910 -40.7886 -40.7883 -40.7880 -40.7874 -40.7870 -40.7855 -40.7849
   -40.7844 -40.7823 -40.7818 -40.7792 -40.7790 -40.7768 -40.7761 -40.7745
   -40.7742 -40.7740 -40.7733 -40.7687 -40.7652 -40.7649 -40.7616 -40.7606
   -40.7577 -40.7524 -40.7510 -40.7486 -40.7478 -40.7439 -40.7428 -40.7417
   -40.7413 -40.7393 -40.7389 -40.7381 -40.7346 -40.7330 -40.7318 -40.7291
   -40.7282 -40.7269 -40.7235 -40.7080  -4.3260  -4.1450  -3.5532  -3.4379
    -3.4001  -3.3026  -3.2584  -3.0907  -2.9876  -2.9163  -2.8518  -2.8086
    -2.7889  -2.7729  -2.6314  -2.5698  -2.5536  -2.5362  -2.4832  -2.4746
    -2.4430  -2.4342  -2.3283  -2.3083  -2.3059  -2.2368  -2.2274  -2.1417
    -2.1259  -2.1015  -1.9982  -1.9440  -1.3630  -1.2710  -1.2030  -1.0726
    -0.7947  -0.6566  -0.6010  -0.5726  -0.5667  -0.4817  -0.4755  -0.3916
    -0.3526  -0.2964  -0.2241  -0.1922  -0.1429  -0.0421   0.0544   0.1185
     0.1391   0.1954   0.2527   0.2912   0.3401   0.3573   0.3789   0.4522
     0.4820   0.5304   0.6824   0.7113   4.3980   4.7610   4.7935   4.8468
     4.9499   4.9960   5.1535   5.2358   5.2647   5.2804   5.2983   5.3351
     5.3552   5.3752   5.4046   5.4209   5.4656   5.5081   5.5185   5.5261
     5.5487   5.5586   5.5813   5.6036   5.6450   5.6707   5.8095   5.8242
     5.9020   5.9581   5.9599   5.9684   6.0002   6.0861   6.1713   6.1885
     6.3517   6.3994   6.4244   6.4531   6.4699   6.4770   6.5037   6.5392
     6.5822   6.6446   6.7004   6.7636   6.7960   6.8373   6.8506   6.8712
     6.9040   6.9364   6.9984   7.0280   7.0774   7.1214   7.2017   7.2420
     7.2753   7.2813   7.2950   7.3348   7.3565   7.4073   7.4246   7.4512
     7.4831   7.5163   7.6261   7.6771   7.7266   7.7570   7.7837   7.8374
     7.8700   7.8817   7.8944   7.9206   7.9503   7.9682   7.9984   8.0430
     8.0633   8.0821   8.1129   8.1239   8.1481   8.1926   8.2189   8.2497
     8.2932   8.3287   8.3470   8.3643   8.3772   8.3926   8.4006   8.4192
     8.4296   8.4462   8.4492   8.4801   8.4971   8.5103   8.5319   8.5407
     8.5946   8.6115   8.6351   8.6705   8.7098   8.7275   8.7704   8.7956
     8.8014   8.8294   8.8350   8.8449   8.8512   8.8635   8.9103   8.9803
     9.0090   9.0739   9.1484   9.1834   9.2190   9.2346   9.2838   9.3665
     9.4138   9.4557   9.4678   9.4871   9.4945   9.5172   9.5242   9.5332
     9.5802   9.5927   9.6621   9.6761   9.6878   9.7953   9.8444   9.8710
     9.9883  10.0101  10.0554  10.1003  10.2177  10.2437  10.2603  10.3500
    10.4261  10.4651  10.4813  10.4997  10.5232  10.5407  10.5705  10.5843
    10.6820  10.6995  10.7260  10.7555  10.7662  10.7920  10.8086  10.8236
    10.8753  10.8792  10.8975  10.9159  10.9554  10.9826  11.0066  11.0213
    11.0905  11.1036  11.1235  11.1464  11.1705  11.2047  11.2078  11.2260
    11.2328  11.2433  11.2618  11.2654  11.2767  11.2859  11.2918  11.2976
    11.3243  11.3485  11.3627  11.3792  11.3879  11.4054  11.4215  11.4292
    11.4579  11.4638  11.4709  11.4813  11.4935  11.4984  11.5053  11.5123
    11.5158  11.5265  11.5498  11.5688  11.6006  11.6070  11.6303  11.6372
    11.6450  11.6848  11.7070  11.7253  11.7474  11.7698  11.7968  11.8186
    11.8219  11.8869  11.9265  11.9346  11.9455  11.9626  11.9871  11.9935
    11.9987  12.0169  12.0230  12.0412  12.0525  12.0658  12.0698  12.1141
    12.1412  12.1485  12.1620  12.1897  12.2030  12.2208  12.2375  12.2778
    12.3101  13.1510  13.1764  13.2726  13.2853  13.3475  13.4231  13.4619
    13.4813  13.4968  13.5076  13.5321  13.5658  13.5916  13.6289  13.6532
    13.6747  13.7047  13.7166  13.7266  13.7547  13.7822  13.8067  13.8209
    13.8225  13.8413  13.8536  13.8761  13.8862  13.9150  13.9424  13.9769
    13.9926  14.0404  14.0420  14.0611  14.1353  14.1503  14.1620  14.1757
    14.1953  14.2140  14.2207  14.2706  14.2967  14.3219  14.3636  14.3910
    14.4177  14.4287  14.4385  14.4443  14.4583  14.4744  14.4835  14.4997
    14.5083  14.5171  14.5570  14.5649  14.6159  14.6342  14.6379  14.6599
    14.6876  14.7087  14.7311  14.8054  14.8345  14.8596  14.8881  14.9299
    14.9874  14.9971  15.0311  15.0337  15.0573  15.1173  15.1527  15.1675
    15.1958  15.2239  15.2438  15.2901  15.3013  15.3392  15.3633  15.4106
    15.4175

     occupation numbers 
     1.0000   1.0000   1.0000   1.0000   1.0000   1.0000   1.0000   1.0000
     1.0000   1.0000   1.0000   1.0000   1.0000   1.0000   1.0000   1.0000
     1.0000   1.0000   1.0000   1.0000   1.0000   1.0000   1.0000   1.0000
     1.0000   1.0000   1.0000   1.0000   1.0000   1.0000   1.0000   1.0000
     1.0000   1.0000   1.0000   1.0000   1.0000   1.0000   1.0000   1.0000
     1.0000   1.0000   1.0000   1.0000   1.0000   1.0000   1.0000   1.0000
     1.0000   1.0000   1.0000   1.0000   1.0000   1.0000   1.0000   1.0000
     1.0000   1.0000   1.0000   1.0000   1.0000   1.0000   1.0000   1.0000
     1.0000   1.0000   1.0000   1.0000   1.0000   1.0000   1.0000   1.0000
     1.0000   1.0000   1.0000   1.0000   1.0000   1.0000   1.0000   1.0000
     1.0000   1.0000   1.0000   1.0000   1.0000   1.0000   1.0000   1.0000
     1.0000   1.0000   1.0000   1.0000   1.0000   1.0000   1.0000   1.0000
     1.0000   1.0000   1.0000   1.0000   1.0000   1.0000   1.0000   1.0000
     1.0000   1.0000   1.0000   1.0000   1.0000   1.0000   1.0000   1.0000
     1.0000   1.0000   1.0000   1.0000   1.0000   1.0000   1.0000   1.0000
     1.0000   1.0000   1.0000   1.0000   1.0000   1.0000   1.0000   1.0000
     1.0000   1.0000   1.0000   1.0000   1.0000   1.0000   1.0000   1.0000
     1.0000   1.0000   1.0000   1.0000   1.0000   1.0000   1.0000   1.0000
     1.0000   1.0000   1.0000   1.0000   1.0000   1.0000   1.0000   1.0000
     1.0000   1.0000   1.0000   1.0000   1.0000   1.0000   1.0000   1.0000
     1.0000   1.0000   1.0000   1.0000   1.0000   1.0000   1.0000   1.0000
     1.0000   1.0000   1.0000   1.0000   1.0000   1.0000   1.0000   1.0000
     1.0000   1.0000   1.0000   1.0000   1.0000   1.0000   1.0000   1.0000
     1.0000   1.0000   1.0000   1.0000   1.0000   1.0000   1.0000   1.0000
     1.0000   1.0000   1.0000   1.0000   1.0000   1.0000   1.0000   1.0000
     1.0000   1.0000   1.0000   1.0000   1.0000   1.0000   1.0000   1.0000
     1.0000   1.0000   1.0000   1.0000   1.0000   1.0000   1.0000   1.0000
     1.0000   1.0000   1.0000   1.0000   1.0000   1.0000   1.0000   1.0000
     1.0000   1.0000   1.0000   1.0000   1.0000   1.0000   1.0000   1.0000
     1.0000   1.0000   1.0000   1.0000   1.0000   1.0000   1.0000   1.0000
     1.0000   1.0000   1.0000   1.0000   1.0000   1.0000   1.0000   1.0000
     1.0000   1.0000   1.0000   1.0000   1.0000   1.0000   1.0000   1.0000
     1.0000   1.0000   1.0000   1.0000   1.0000   1.0000   1.0000   1.0000
     1.0000   1.0000   1.0000   1.0000   1.0000   1.0000   1.0000   1.0000
     1.0000   1.0000   1.0000   1.0000   1.0000   1.0000   1.0000   1.0000
     1.0000   1.0000   1.0000   1.0000   1.0000   1.0000   1.0000   1.0000
     1.0000   1.0000   1.0000   1.0000   1.0000   1.0000   1.0000   1.0000
     1.0000   1.0000   1.0000   1.0000   1.0000   1.0000   1.0000   1.0000
     1.0000   1.0000   1.0000   1.0000   1.0000   1.0000   1.0000   1.0000
     1.0000   1.0000   1.0000   1.0000   1.0000   1.0000   1.0000   1.0000
     1.0000   1.0000   1.0000   1.0000   1.0000   1.0000   1.0000   1.0000
     1.0000   1.0000   1.0000   1.0000   1.0000   1.0000   1.0000   1.0000
     1.0000   1.0000   1.0000   1.0000   1.0000   1.0000   1.0000   1.0000
     1.0000   1.0000   1.0000   1.0000   1.0000   1.0000   1.0000   1.0000
     1.0000   1.0000   1.0000   1.0000   1.0000   1.0000   1.0000   1.0000
     1.0000   1.0000   1.0000   1.0000   1.0000   1.0000   1.0000   1.0000
     1.0000   1.0000   1.0000   1.0000   1.0000   1.0000   1.0000   1.0000
     1.0000   1.0000   1.0000   1.0000   1.0000   1.0000   1.0000   1.0000
     1.0000   1.0000   1.0000   1.0000   1.0000   1.0000   1.0000   1.0000
     1.0000   1.0000   1.0000   1.0000   1.0000   1.0000   1.0000   1.0000
     1.0000   1.0000   1.0000   1.0000   1.0000   1.0000   1.0000   1.0000
     1.0000   1.0000   1.0000   1.0000   1.0000   1.0000   1.0000   1.0000
     1.0000   1.0000   1.0000   1.0000   1.0000   1.0000   1.0000   1.0000
     1.0000   1.0000   1.0000   1.0000   1.0000   1.0000   1.0000   1.0000
     1.0000   1.0000   1.0000   1.0000   1.0000   1.0000   1.0000   1.0001
     1.0002   0.0853   0.0584   0.0107   0.0083   0.0021   0.0003   0.0001
     0.0001   0.0000   0.0000   0.0000   0.0000   0.0000   0.0000   0.0000
     0.0000   0.0000   0.0000   0.0000   0.0000   0.0000   0.0000   0.0000
     0.0000   0.0000   0.0000   0.0000   0.0000   0.0000   0.0000   0.0000
     0.0000   0.0000   0.0000   0.0000   0.0000   0.0000   0.0000   0.0000
     0.0000   0.0000   0.0000   0.0000   0.0000   0.0000   0.0000   0.0000
     0.0000   0.0000   0.0000   0.0000   0.0000   0.0000   0.0000   0.0000
     0.0000   0.0000   0.0000   0.0000   0.0000   0.0000   0.0000   0.0000
     0.0000   0.0000   0.0000   0.0000   0.0000   0.0000   0.0000   0.0000
     0.0000   0.0000   0.0000   0.0000   0.0000   0.0000   0.0000   0.0000
     0.0000   0.0000   0.0000   0.0000   0.0000   0.0000   0.0000   0.0000
     0.0000

          k = 0.0000-0.4095 0.0000 ( 69190 PWs)   bands (ev):

   -75.3386 -75.3367 -74.9512 -74.9510 -74.9129 -74.9125 -74.8908 -74.8908
   -74.8686 -74.8639 -74.8634 -74.8615 -74.8560 -74.8559 -74.8535 -74.8504
   -74.8489 -74.8488 -74.8485 -74.8483 -74.8471 -74.8469 -74.8463 -74.8454
   -74.8451 -74.8408 -74.8406 -74.8350 -74.8347 -74.8341 -74.8110 -41.3867
   -41.3842 -41.3749 -41.3722 -41.1692 -41.1683 -40.9925 -40.9909 -40.9848
   -40.9842 -40.9446 -40.9441 -40.9408 -40.9400 -40.9371 -40.9270 -40.9235
   -40.9233 -40.9228 -40.9226 -40.9213 -40.9211 -40.9191 -40.9187 -40.9179
   -40.9172 -40.9165 -40.9159 -40.9157 -40.9150 -40.9146 -40.9142 -40.9126
   -40.9122 -40.9022 -40.9019 -40.8786 -40.8546 -40.8517 -40.8513 -40.8480
   -40.8437 -40.8429 -40.8108 -40.8067 -40.8035 -40.7953 -40.7934 -40.7924
   -40.7911 -40.7881 -40.7877 -40.7875 -40.7871 -40.7864 -40.7853 -40.7852
   -40.7846 -40.7820 -40.7814 -40.7788 -40.7787 -40.7763 -40.7757 -40.7741
   -40.7739 -40.7737 -40.7730 -40.7687 -40.7651 -40.7649 -40.7623 -40.7613
   -40.7582 -40.7525 -40.7515 -40.7483 -40.7480 -40.7442 -40.7442 -40.7441
   -40.7410 -40.7398 -40.7393 -40.7382 -40.7349 -40.7336 -40.7326 -40.7292
   -40.7289 -40.7281 -40.7242 -40.7088  -4.1829  -4.1172  -3.7096  -3.6523
    -3.6237  -3.5889  -3.0121  -2.8355  -2.7762  -2.7592  -2.6823  -2.6087
    -2.5848  -2.5774  -2.5642  -2.5589  -2.5459  -2.5268  -2.5158  -2.5112
    -2.4914  -2.4716  -2.4689  -2.4527  -2.3559  -2.3328  -2.3152  -2.3144
    -2.2130  -2.2023  -2.1610  -2.1377  -1.1395  -0.9929  -0.9412  -0.8995
    -0.8266  -0.6947  -0.6908  -0.6895  -0.6668  -0.6039  -0.5973  -0.4054
    -0.3406  -0.3244  -0.2690  -0.0434  -0.0258   0.0453   0.0568   0.0682
     0.0872   0.1627   0.1844   0.2148   0.3239   0.3296   0.4447   0.4468
     0.4640   0.5164   0.6552   0.7165   4.5104   4.7982   4.8885   5.2086
     5.2418   5.2528   5.2694   5.2757   5.3084   5.3124   5.3287   5.3418
     5.3483   5.3494   5.3547   5.3705   5.3706   5.3755   5.3773   5.3959
     5.4114   5.4227   5.4526   5.4589   5.4595   5.5186   5.6778   5.7418
     5.7765   5.7982   6.0904   6.1404   6.1605   6.1866   6.2111   6.2541
     6.3176   6.3204   6.3619   6.3638   6.4683   6.6163   6.6566   6.6619
     6.6665   6.6779   6.7119   6.7288   6.7617   6.7662   6.7721   6.7856
     6.8080   6.8612   7.0035   7.1106   7.1244   7.1853   7.2450   7.2548
     7.2879   7.3250   7.5295   7.5381   7.5665   7.5803   7.5930   7.6300
     7.6493   7.6767   7.7040   7.7079   7.7281   7.7565   7.7769   7.8173
     7.8650   7.8777   7.8786   7.8802   7.8999   7.9208   7.9210   7.9250
     7.9383   7.9492   7.9744   7.9830   8.0045   8.0052   8.0241   8.0561
     8.1047   8.1261   8.1514   8.1761   8.1919   8.1949   8.2643   8.2791
     8.2971   8.3453   8.3638   8.3819   8.4031   8.4462   8.4971   8.5008
     8.5340   8.6382   8.7707   8.7789   8.8237   8.8376   8.8545   8.8644
     8.8759   8.8916   8.9380   8.9994   9.0025   9.0663   9.1070   9.1462
     9.1463   9.1690   9.1793   9.1869   9.2345   9.2995   9.3605   9.3875
     9.4471   9.4506   9.4728   9.4801   9.5362   9.5381   9.5417   9.5562
     9.5662   9.5717   9.5733   9.5912   9.6176   9.7508   9.7892   9.8273
     9.8993  10.0074  10.0444  10.0765  10.1191  10.1508  10.3434  10.3595
    10.3800  10.4465  10.5387  10.5835  10.5926  10.6071  10.6522  10.6666
    10.7433  10.7463  10.7852  10.7931  10.8087  10.8278  10.8346  10.8423
    10.8595  10.8690  10.9050  10.9222  10.9703  10.9723  10.9991  10.9999
    11.0302  11.0364  11.1120  11.1155  11.1553  11.1710  11.2211  11.2263
    11.2811  11.2873  11.2994  11.3043  11.3089  11.3183  11.3302  11.3383
    11.3429  11.3499  11.3559  11.3832  11.3870  11.4192  11.4340  11.4422
    11.4568  11.4625  11.4638  11.4702  11.4827  11.5176  11.5253  11.5283
    11.5338  11.5440  11.5456  11.5610  11.6095  11.6157  11.6459  11.6607
    11.6777  11.6844  11.6993  11.7319  11.7613  11.7912  11.8121  11.8291
    11.8431  11.8764  11.9116  11.9188  11.9367  11.9478  11.9526  11.9742
    11.9778  11.9822  11.9887  11.9984  12.0080  12.0080  12.0306  12.0396
    12.0684  12.0742  12.0836  12.0847  12.1437  12.2205  12.2560  12.2639
    12.3007  13.2334  13.3365  13.3366  13.3629  13.3882  13.4001  13.5241
    13.5387  13.5680  13.5794  13.5968  13.6045  13.6155  13.6290  13.6597
    13.6777  13.6947  13.7340  13.7423  13.7598  13.8114  13.8595  13.8715
    13.8725  13.8837  13.9167  13.9211  13.9330  13.9493  13.9801  13.9901
    14.0027  14.0150  14.0165  14.0221  14.0469  14.0475  14.0525  14.0822
    14.1108  14.1270  14.1345  14.1828  14.1975  14.2259  14.2340  14.2529
    14.2578  14.2627  14.2670  14.2790  14.3028  14.3213  14.3344  14.3626
    14.4328  14.4358  14.4869  14.7378  14.7993  14.8326  14.8553  14.8629
    14.8920  14.8984  14.8991  14.9435  14.9757  15.0150  15.0573  15.0688
    15.0874  15.0879  15.1029  15.1258  15.1522  15.1604  15.1800  15.2097
    15.2274  15.2445  15.2720  15.2973  15.2979  15.3014  15.3326  15.3543
    15.3943

     occupation numbers 
     1.0000   1.0000   1.0000   1.0000   1.0000   1.0000   1.0000   1.0000
     1.0000   1.0000   1.0000   1.0000   1.0000   1.0000   1.0000   1.0000
     1.0000   1.0000   1.0000   1.0000   1.0000   1.0000   1.0000   1.0000
     1.0000   1.0000   1.0000   1.0000   1.0000   1.0000   1.0000   1.0000
     1.0000   1.0000   1.0000   1.0000   1.0000   1.0000   1.0000   1.0000
     1.0000   1.0000   1.0000   1.0000   1.0000   1.0000   1.0000   1.0000
     1.0000   1.0000   1.0000   1.0000   1.0000   1.0000   1.0000   1.0000
     1.0000   1.0000   1.0000   1.0000   1.0000   1.0000   1.0000   1.0000
     1.0000   1.0000   1.0000   1.0000   1.0000   1.0000   1.0000   1.0000
     1.0000   1.0000   1.0000   1.0000   1.0000   1.0000   1.0000   1.0000
     1.0000   1.0000   1.0000   1.0000   1.0000   1.0000   1.0000   1.0000
     1.0000   1.0000   1.0000   1.0000   1.0000   1.0000   1.0000   1.0000
     1.0000   1.0000   1.0000   1.0000   1.0000   1.0000   1.0000   1.0000
     1.0000   1.0000   1.0000   1.0000   1.0000   1.0000   1.0000   1.0000
     1.0000   1.0000   1.0000   1.0000   1.0000   1.0000   1.0000   1.0000
     1.0000   1.0000   1.0000   1.0000   1.0000   1.0000   1.0000   1.0000
     1.0000   1.0000   1.0000   1.0000   1.0000   1.0000   1.0000   1.0000
     1.0000   1.0000   1.0000   1.0000   1.0000   1.0000   1.0000   1.0000
     1.0000   1.0000   1.0000   1.0000   1.0000   1.0000   1.0000   1.0000
     1.0000   1.0000   1.0000   1.0000   1.0000   1.0000   1.0000   1.0000
     1.0000   1.0000   1.0000   1.0000   1.0000   1.0000   1.0000   1.0000
     1.0000   1.0000   1.0000   1.0000   1.0000   1.0000   1.0000   1.0000
     1.0000   1.0000   1.0000   1.0000   1.0000   1.0000   1.0000   1.0000
     1.0000   1.0000   1.0000   1.0000   1.0000   1.0000   1.0000   1.0000
     1.0000   1.0000   1.0000   1.0000   1.0000   1.0000   1.0000   1.0000
     1.0000   1.0000   1.0000   1.0000   1.0000   1.0000   1.0000   1.0000
     1.0000   1.0000   1.0000   1.0000   1.0000   1.0000   1.0000   1.0000
     1.0000   1.0000   1.0000   1.0000   1.0000   1.0000   1.0000   1.0000
     1.0000   1.0000   1.0000   1.0000   1.0000   1.0000   1.0000   1.0000
     1.0000   1.0000   1.0000   1.0000   1.0000   1.0000   1.0000   1.0000
     1.0000   1.0000   1.0000   1.0000   1.0000   1.0000   1.0000   1.0000
     1.0000   1.0000   1.0000   1.0000   1.0000   1.0000   1.0000   1.0000
     1.0000   1.0000   1.0000   1.0000   1.0000   1.0000   1.0000   1.0000
     1.0000   1.0000   1.0000   1.0000   1.0000   1.0000   1.0000   1.0000
     1.0000   1.0000   1.0000   1.0000   1.0000   1.0000   1.0000   1.0000
     1.0000   1.0000   1.0000   1.0000   1.0000   1.0000   1.0000   1.0000
     1.0000   1.0000   1.0000   1.0000   1.0000   1.0000   1.0000   1.0000
     1.0000   1.0000   1.0000   1.0000   1.0000   1.0000   1.0000   1.0000
     1.0000   1.0000   1.0000   1.0000   1.0000   1.0000   1.0000   1.0000
     1.0000   1.0000   1.0000   1.0000   1.0000   1.0000   1.0000   1.0000
     1.0000   1.0000   1.0000   1.0000   1.0000   1.0000   1.0000   1.0000
     1.0000   1.0000   1.0000   1.0000   1.0000   1.0000   1.0000   1.0000
     1.0000   1.0000   1.0000   1.0000   1.0000   1.0000   1.0000   1.0000
     1.0000   1.0000   1.0000   1.0000   1.0000   1.0000   1.0000   1.0000
     1.0000   1.0000   1.0000   1.0000   1.0000   1.0000   1.0000   1.0000
     1.0000   1.0000   1.0000   1.0000   1.0000   1.0000   1.0000   1.0000
     1.0000   1.0000   1.0000   1.0000   1.0000   1.0000   1.0000   1.0000
     1.0000   1.0000   1.0000   1.0000   1.0000   1.0000   1.0000   1.0000
     1.0000   1.0000   1.0000   1.0000   1.0000   1.0000   1.0000   1.0000
     1.0000   1.0000   1.0000   1.0000   1.0000   1.0000   1.0000   1.0000
     1.0000   1.0000   1.0000   1.0000   1.0000   1.0000   1.0000   1.0000
     1.0000   1.0000   1.0000   1.0000   1.0000   1.0000   1.0000   1.0000
     1.0000   1.0000   1.0000   1.0000   1.0000   1.0000   1.0000   1.0000
     1.0000   1.0000   1.0000   1.0000   1.0000   1.0000   1.0000   1.0000
     1.0000   1.0000   1.0000   1.0000   1.0000   1.0000   1.0000   1.0000
     1.0001   0.0225   0.0027   0.0027   0.0015   0.0008   0.0006   0.0000
     0.0000   0.0000   0.0000   0.0000   0.0000   0.0000   0.0000   0.0000
     0.0000   0.0000   0.0000   0.0000   0.0000   0.0000   0.0000   0.0000
     0.0000   0.0000   0.0000   0.0000   0.0000   0.0000   0.0000   0.0000
     0.0000   0.0000   0.0000   0.0000   0.0000   0.0000   0.0000   0.0000
     0.0000   0.0000   0.0000   0.0000   0.0000   0.0000   0.0000   0.0000
     0.0000   0.0000   0.0000   0.0000   0.0000   0.0000   0.0000   0.0000
     0.0000   0.0000   0.0000   0.0000   0.0000   0.0000   0.0000   0.0000
     0.0000   0.0000   0.0000   0.0000   0.0000   0.0000   0.0000   0.0000
     0.0000   0.0000   0.0000   0.0000   0.0000   0.0000   0.0000   0.0000
     0.0000   0.0000   0.0000   0.0000   0.0000   0.0000   0.0000   0.0000
     0.0000

          k = 0.0000-0.4095 0.2186 ( 69180 PWs)   bands (ev):

   -75.3386 -75.3367 -74.9514 -74.9508 -74.9130 -74.9123 -74.8910 -74.8906
   -74.8686 -74.8640 -74.8633 -74.8614 -74.8561 -74.8557 -74.8535 -74.8504
   -74.8491 -74.8486 -74.8486 -74.8482 -74.8472 -74.8467 -74.8463 -74.8453
   -74.8451 -74.8408 -74.8405 -74.8349 -74.8347 -74.8341 -74.8109 -41.3868
   -41.3842 -41.3747 -41.3722 -41.1691 -41.1682 -40.9921 -40.9913 -40.9849
   -40.9840 -40.9444 -40.9442 -40.9407 -40.9398 -40.9370 -40.9269 -40.9236
   -40.9232 -40.9230 -40.9223 -40.9214 -40.9208 -40.9191 -40.9186 -40.9177
   -40.9169 -40.9167 -40.9162 -40.9155 -40.9150 -40.9145 -40.9143 -40.9126
[...]
     atom   73 type  1   force =     0.00002816    0.00005846   -0.00000482
     atom   74 type  1   force =     0.00004446   -0.00026872    0.00059973
     atom   75 type  2   force =     0.00496478   -0.00297268   -0.00000071
     atom   76 type  2   force =    -0.00486320    0.00307874   -0.00000049
     atom   77 type  2   force =    -0.00496528   -0.00311148   -0.00000108
     atom   78 type  2   force =     0.00525165    0.00316978    0.00021846
     atom   79 type  1   force =     0.00007301   -0.00014373    0.00029836
     atom   80 type  1   force =     0.00034798   -0.00162021   -0.00180836
     atom   81 type  2   force =     0.00505294   -0.00274369    0.00031233
     atom   82 type  2   force =    -0.00525713    0.00298731    0.00037896
     atom   83 type  2   force =    -0.00476653   -0.00329563    0.00012475
     atom   84 type  2   force =     0.00663408    0.00397831   -0.00014006
     atom   85 type  1   force =     0.00034378   -0.00162345    0.00180724
     atom   86 type  2   force =     0.00274125   -0.01232218   -0.00000196
     atom   87 type  2   force =    -0.00501914    0.00322109    0.00000037
     atom   88 type  2   force =    -0.00476554   -0.00329566   -0.00012384
     atom   89 type  2   force =     0.00663577    0.00397987    0.00014264
     atom   90 type  1   force =     0.00007189   -0.00014504   -0.00032855
     atom   91 type  1   force =     0.00004484   -0.00027081   -0.00060121
     atom   92 type  2   force =     0.00505046   -0.00274766   -0.00031235
     atom   93 type  2   force =    -0.00525597    0.00298647   -0.00037857
     atom   94 type  2   force =    -0.00496500   -0.00311186    0.00000014
     atom   95 type  2   force =     0.00524992    0.00316861   -0.00021896
     atom   96 type  3   force =     0.00000000    0.00000000    0.00000000
     The Hubbard contrib.    to forces
     atom    1 type  1   force =     0.00000000    0.00000000    0.00000000
     atom    2 type  1   force =     0.00000000    0.00000000    0.00000000
     atom    3 type  2   force =     0.00000000    0.00000000    0.00000000
     atom    4 type  2   force =     0.00000000    0.00000000    0.00000000
     atom    5 type  2   force =     0.00000000    0.00000000    0.00000000
     atom    6 type  2   force =     0.00000000    0.00000000    0.00000000
     atom    7 type  1   force =     0.00000000    0.00000000    0.00000000
     atom    8 type  1   force =     0.00000000    0.00000000    0.00000000
     atom    9 type  2   force =     0.00000000    0.00000000    0.00000000
     atom   10 type  2   force =     0.00000000    0.00000000    0.00000000
     atom   11 type  2   force =     0.00000000    0.00000000    0.00000000
     atom   12 type  2   force =     0.00000000    0.00000000    0.00000000
     atom   13 type  1   force =     0.00000000    0.00000000    0.00000000
     atom   14 type  1   force =     0.00000000    0.00000000    0.00000000
     atom   15 type  2   force =     0.00000000    0.00000000    0.00000000
     atom   16 type  2   force =     0.00000000    0.00000000    0.00000000
     atom   17 type  2   force =     0.00000000    0.00000000    0.00000000
     atom   18 type  2   force =     0.00000000    0.00000000    0.00000000
     atom   19 type  1   force =     0.00000000    0.00000000    0.00000000
     atom   20 type  1   force =     0.00000000    0.00000000    0.00000000
     atom   21 type  2   force =     0.00000000    0.00000000    0.00000000
     atom   22 type  2   force =     0.00000000    0.00000000    0.00000000
     atom   23 type  2   force =     0.00000000    0.00000000    0.00000000
     atom   24 type  2   force =     0.00000000    0.00000000    0.00000000
     atom   25 type  1   force =     0.00000000    0.00000000    0.00000000
     atom   26 type  1   force =     0.00000000    0.00000000    0.00000000
     atom   27 type  2   force =     0.00000000    0.00000000    0.00000000
     atom   28 type  2   force =     0.00000000    0.00000000    0.00000000
     atom   29 type  2   force =     0.00000000    0.00000000    0.00000000
     atom   30 type  2   force =     0.00000000    0.00000000    0.00000000
     atom   31 type  1   force =     0.00000000    0.00000000    0.00000000
     atom   32 type  1   force =     0.00000000    0.00000000    0.00000000
     atom   33 type  2   force =     0.00000000    0.00000000    0.00000000
     atom   34 type  2   force =     0.00000000    0.00000000    0.00000000
     atom   35 type  2   force =     0.00000000    0.00000000    0.00000000
     atom   36 type  2   force =     0.00000000    0.00000000    0.00000000
     atom   37 type  1   force =     0.00000000    0.00000000    0.00000000
     atom   38 type  1   force =     0.00000000    0.00000000    0.00000000
     atom   39 type  2   force =     0.00000000    0.00000000    0.00000000
     atom   40 type  2   force =     0.00000000    0.00000000    0.00000000
     atom   41 type  2   force =     0.00000000    0.00000000    0.00000000
     atom   42 type  2   force =     0.00000000    0.00000000    0.00000000
     atom   43 type  1   force =     0.00000000    0.00000000    0.00000000
     atom   44 type  1   force =     0.00000000    0.00000000    0.00000000
     atom   45 type  2   force =     0.00000000    0.00000000    0.00000000
     atom   46 type  2   force =     0.00000000    0.00000000    0.00000000
     atom   47 type  2   force =     0.00000000    0.00000000    0.00000000
     atom   48 type  2   force =     0.00000000    0.00000000    0.00000000
     atom   49 type  1   force =     0.00000000    0.00000000    0.00000000
     atom   50 type  1   force =     0.00000000    0.00000000    0.00000000
     atom   51 type  2   force =     0.00000000    0.00000000    0.00000000
     atom   52 type  2   force =     0.00000000    0.00000000    0.00000000
     atom   53 type  2   force =     0.00000000    0.00000000    0.00000000
     atom   54 type  2   force =     0.00000000    0.00000000    0.00000000
     atom   55 type  1   force =     0.00000000    0.00000000    0.00000000
     atom   56 type  1   force =     0.00000000    0.00000000    0.00000000
     atom   57 type  2   force =     0.00000000    0.00000000    0.00000000
     atom   58 type  2   force =     0.00000000    0.00000000    0.00000000
     atom   59 type  2   force =     0.00000000    0.00000000    0.00000000
     atom   60 type  2   force =     0.00000000    0.00000000    0.00000000
     atom   61 type  1   force =     0.00000000    0.00000000    0.00000000
     atom   62 type  1   force =     0.00000000    0.00000000    0.00000000
     atom   63 type  2   force =     0.00000000    0.00000000    0.00000000
     atom   64 type  2   force =     0.00000000    0.00000000    0.00000000
     atom   65 type  2   force =     0.00000000    0.00000000    0.00000000
     atom   66 type  2   force =     0.00000000    0.00000000    0.00000000
     atom   67 type  1   force =     0.00000000    0.00000000    0.00000000
     atom   68 type  1   force =     0.00000000    0.00000000    0.00000000
     atom   69 type  2   force =     0.00000000    0.00000000    0.00000000
     atom   70 type  2   force =     0.00000000    0.00000000    0.00000000
     atom   71 type  2   force =     0.00000000    0.00000000    0.00000000
     atom   72 type  2   force =     0.00000000    0.00000000    0.00000000
     atom   73 type  1   force =     0.00000000    0.00000000    0.00000000
     atom   74 type  1   force =     0.00000000    0.00000000    0.00000000
     atom   75 type  2   force =     0.00000000    0.00000000    0.00000000
     atom   76 type  2   force =     0.00000000    0.00000000    0.00000000
     atom   77 type  2   force =     0.00000000    0.00000000    0.00000000
     atom   78 type  2   force =     0.00000000    0.00000000    0.00000000
     atom   79 type  1   force =     0.00000000    0.00000000    0.00000000
     atom   80 type  1   force =     0.00000000    0.00000000    0.00000000
     atom   81 type  2   force =     0.00000000    0.00000000    0.00000000
     atom   82 type  2   force =     0.00000000    0.00000000    0.00000000
     atom   83 type  2   force =     0.00000000    0.00000000    0.00000000
     atom   84 type  2   force =     0.00000000    0.00000000    0.00000000
     atom   85 type  1   force =     0.00000000    0.00000000    0.00000000
     atom   86 type  2   force =     0.00000000    0.00000000    0.00000000
     atom   87 type  2   force =     0.00000000    0.00000000    0.00000000
     atom   88 type  2   force =     0.00000000    0.00000000    0.00000000
     atom   89 type  2   force =     0.00000000    0.00000000    0.00000000
     atom   90 type  1   force =     0.00000000    0.00000000    0.00000000
     atom   91 type  1   force =     0.00000000    0.00000000    0.00000000
     atom   92 type  2   force =     0.00000000    0.00000000    0.00000000
     atom   93 type  2   force =     0.00000000    0.00000000    0.00000000
     atom   94 type  2   force =     0.00000000    0.00000000    0.00000000
     atom   95 type  2   force =     0.00000000    0.00000000    0.00000000
     atom   96 type  3   force =     0.00000000    0.00000000    0.00000000
     The SCF correction term to forces
     atom    1 type  1   force =    -0.00000014   -0.00000120   -0.00000062
     atom    2 type  1   force =     0.00000673    0.00001021   -0.00003338
     atom    3 type  2   force =    -0.00000019    0.00000124   -0.00000025
     atom    4 type  2   force =     0.00000221    0.00000637   -0.00000024
     atom    5 type  2   force =     0.00000435    0.00000128   -0.00001515
     atom    6 type  2   force =     0.00000004    0.00000213   -0.00001352
     atom    7 type  1   force =     0.00000203    0.00000520   -0.00005897
     atom    8 type  1   force =     0.00002719    0.00002502   -0.00002121
     atom    9 type  2   force =     0.00000280    0.00000394   -0.00001786
     atom   10 type  2   force =     0.00000156    0.00000331   -0.00001205
     atom   11 type  2   force =     0.00001038   -0.00000302   -0.00001010
     atom   12 type  2   force =     0.00000326    0.00000792   -0.00001055
     atom   13 type  1   force =     0.00000506    0.00001263    0.00000055
     atom   14 type  1   force =     0.00002720    0.00002490    0.00002200
     atom   15 type  2   force =     0.00000811    0.00000799    0.00000024
     atom   16 type  2   force =     0.00000732    0.00001288    0.00000021
     atom   17 type  2   force =     0.00001037   -0.00000306    0.00001038
     atom   18 type  2   force =     0.00000324    0.00000796    0.00001088
     atom   19 type  1   force =     0.00000211    0.00000528    0.00005900
     atom   20 type  1   force =     0.00000677    0.00001014    0.00003248
     atom   21 type  2   force =     0.00000284    0.00000393    0.00001788
     atom   22 type  2   force =     0.00000151    0.00000322    0.00001209
     atom   23 type  2   force =     0.00000438    0.00000122    0.00001486
     atom   24 type  2   force =     0.00000003    0.00000217    0.00001318
     atom   25 type  1   force =     0.00000037    0.00000144   -0.00000050
     atom   26 type  1   force =     0.00000676   -0.00001285   -0.00004238
     atom   27 type  2   force =     0.00000144   -0.00000347   -0.00000020
     atom   28 type  2   force =     0.00000059   -0.00000438   -0.00000020
     atom   29 type  2   force =     0.00000101   -0.00000158   -0.00001608
     atom   30 type  2   force =     0.00000176   -0.00000161   -0.00001594
     atom   31 type  1   force =     0.00000227   -0.00000551   -0.00004863
     atom   32 type  1   force =     0.00002226   -0.00002235   -0.00003448
     atom   33 type  2   force =     0.00000435   -0.00000354   -0.00002064
     atom   34 type  2   force =     0.00000051   -0.00000467   -0.00001914
     atom   35 type  2   force =     0.00000532   -0.00000057   -0.00001576
     atom   36 type  2   force =     0.00000916   -0.00000641   -0.00000303
     atom   37 type  1   force =     0.00000388   -0.00001206    0.00000044
     atom   38 type  1   force =     0.00002227   -0.00002230    0.00003525
     atom   39 type  2   force =     0.00000969   -0.00000700    0.00000018
     atom   40 type  2   force =     0.00000030   -0.00000709    0.00000019
     atom   41 type  2   force =     0.00000531   -0.00000054    0.00001606
     atom   42 type  2   force =     0.00000913   -0.00000642    0.00000328
     atom   43 type  1   force =     0.00000230   -0.00000556    0.00004866
     atom   44 type  1   force =     0.00000673   -0.00001274    0.00004163
     atom   45 type  2   force =     0.00000433   -0.00000354    0.00002066
     atom   46 type  2   force =     0.00000051   -0.00000458    0.00001914
     atom   47 type  2   force =     0.00000102   -0.00000155    0.00001577
     atom   48 type  2   force =     0.00000170   -0.00000163    0.00001571
     atom   49 type  1   force =     0.00000028   -0.00000158   -0.00000060
     atom   50 type  1   force =    -0.00000672    0.00001277   -0.00003598
     atom   51 type  2   force =    -0.00000039    0.00000395   -0.00000024
     atom   52 type  2   force =    -0.00000154    0.00000382   -0.00000024
     atom   53 type  2   force =    -0.00000210    0.00000109   -0.00001522
     atom   54 type  2   force =    -0.00000090    0.00000178   -0.00001554
     atom   55 type  1   force =    -0.00000228    0.00000561   -0.00005147
     atom   56 type  1   force =    -0.00002369    0.00002611   -0.00002992
     atom   57 type  2   force =    -0.00000179    0.00000691   -0.00001490
     atom   58 type  2   force =    -0.00000388    0.00000202   -0.00001724
     atom   59 type  2   force =    -0.00001157   -0.00000343   -0.00000141
     atom   60 type  2   force =    -0.00000402    0.00000765   -0.00001556
     atom   61 type  1   force =    -0.00000752    0.00001306    0.00000048
     atom   62 type  1   force =    -0.00002365    0.00002606    0.00003064
     atom   63 type  2   force =    -0.00000635    0.00001405    0.00000022
     atom   64 type  2   force =    -0.00000869    0.00000366    0.00000021
     atom   65 type  2   force =    -0.00001156   -0.00000349    0.00000162
     atom   66 type  2   force =    -0.00000401    0.00000766    0.00001586
     atom   67 type  1   force =    -0.00000232    0.00000565    0.00005158
     atom   68 type  1   force =    -0.00000664    0.00001267    0.00003522
     atom   69 type  2   force =    -0.00000181    0.00000689    0.00001493
     atom   70 type  2   force =    -0.00000387    0.00000197    0.00001727
     atom   71 type  2   force =    -0.00000207    0.00000101    0.00001498
     atom   72 type  2   force =    -0.00000090    0.00000182    0.00001523
     atom   73 type  1   force =    -0.00000051    0.00000100   -0.00000046
     atom   74 type  1   force =    -0.00000579   -0.00000914   -0.00004427
     atom   75 type  2   force =    -0.00000207   -0.00000555   -0.00000018
     atom   76 type  2   force =    -0.00000015   -0.00000183   -0.00000021
     atom   77 type  2   force =    -0.00000005   -0.00000211   -0.00001509
     atom   78 type  2   force =    -0.00000409   -0.00000133   -0.00001667
     atom   79 type  1   force =    -0.00000227   -0.00000793   -0.00003498
     atom   80 type  1   force =    -0.00002057   -0.00002211   -0.00003507
     atom   81 type  2   force =    -0.00000325   -0.00000514   -0.00001951
     atom   82 type  2   force =    -0.00000047   -0.00000181   -0.00002375
     atom   83 type  2   force =    -0.00000514    0.00000177   -0.00001314
     atom   84 type  2   force =    -0.00000760   -0.00000593   -0.00001175
     atom   85 type  1   force =    -0.00002055   -0.00002197    0.00003580
     atom   86 type  2   force =    -0.00000781   -0.00001844    0.00000020
     atom   87 type  2   force =    -0.00000251   -0.00000367    0.00000022
     atom   88 type  2   force =    -0.00000513    0.00000177    0.00001344
     atom   89 type  2   force =    -0.00000759   -0.00000591    0.00001200
     atom   90 type  1   force =    -0.00000236   -0.00000808    0.00003498
     atom   91 type  1   force =    -0.00000578   -0.00000906    0.00004350
     atom   92 type  2   force =    -0.00000319   -0.00000507    0.00001950
     atom   93 type  2   force =    -0.00000048   -0.00000179    0.00002374
     atom   94 type  2   force =    -0.00000008   -0.00000208    0.00001479
     atom   95 type  2   force =    -0.00000407   -0.00000131    0.00001639
     atom   96 type  3   force =     0.00000059    0.00000025    0.00000003

     Total force =     0.029936     Total SCF correction =     0.000255

     Writing all to output data dir /tmp/marc_spin_diag/marc_endA_m113/tmp/marc_endA_m113.save/ :
     XML data file, charge density, pseudopotentials, collected wavefunctions
 
     init_run     :     24.64s CPU     31.23s WALL (       1 calls)
     electrons    :   1029.42s CPU   1083.79s WALL (       1 calls)
     forces       :     21.14s CPU     21.54s WALL (       1 calls)

     Called by init_run:
     wfcinit      :     21.13s CPU     26.61s WALL (       1 calls)
     wfcinit:atom :      4.51s CPU      4.52s WALL (      16 calls)
     wfcinit:wfcr :     11.41s CPU     11.65s WALL (      16 calls)
     potinit      :      0.41s CPU      0.45s WALL (       1 calls)
     hinit0       :      2.80s CPU      2.40s WALL (       1 calls)

     Called by electrons:
     c_bands      :    886.99s CPU    912.05s WALL (      21 calls)
     sum_band     :    128.15s CPU    152.31s WALL (      21 calls)
     v_of_rho     :      1.69s CPU      1.69s WALL (      22 calls)
     v_h          :      0.45s CPU      0.34s WALL (      22 calls)
     v_xc         :      1.38s CPU      1.53s WALL (      23 calls)
     mix_rho      :     12.08s CPU     16.92s WALL (      21 calls)

     Called by c_bands:
     init_us_2    :     47.75s CPU     47.85s WALL (     704 calls)
     cegterg      :    728.52s CPU    729.53s WALL (     336 calls)

     Called by sum_band:
     sum_band:wei :      0.27s CPU      0.28s WALL (      21 calls)
     sum_band:loo :    127.15s CPU    151.07s WALL (      21 calls)
     sum_band:buf :     32.14s CPU     56.06s WALL (     336 calls)
     sum_band:ini :     18.94s CPU     18.98s WALL (     336 calls)

     Called by *egterg:
     cdiaghg      :     70.75s CPU     71.30s WALL (    1584 calls)
                                       70.68s GPU  (    1584 calls)
     cegterg:over :     84.01s CPU     84.23s WALL (    1248 calls)
     cegterg:upda :     92.13s CPU     92.25s WALL (    1248 calls)
     cegterg:last :     33.62s CPU     33.69s WALL (     663 calls)
     h_psi        :    402.87s CPU    403.19s WALL (    1600 calls)
     g_psi        :      1.53s CPU      1.54s WALL (    1248 calls)

     Called by h_psi:
     h_psi:calbec :      0.12s CPU      0.20s WALL (    1600 calls)
     vloc_psi     :    262.10s CPU    262.69s WALL (    1600 calls)
                                      262.10s GPU  (    1600 calls)
     add_vuspsi   :    138.40s CPU    138.63s WALL (    1600 calls)

     General routines
     calbec       :      0.12s CPU      0.20s WALL (    1664 calls)
     fft          :      0.09s CPU      0.35s WALL (     433 calls)
                                        0.15s GPU  (     433 calls)
     ffts         :      0.01s CPU      0.29s WALL (     580 calls)
                                        0.07s GPU  (     580 calls)
     fftw         :      0.99s CPU    166.45s WALL (   65840 calls)
                                      145.18s GPU  (   65840 calls)
 
     Parallel routines
 
     PWSCF        :  17m57.68s CPU  19m 5.81s WALL

 
   This run was terminated on:   0:30: 5  29May2026            

=------------------------------------------------------------------------------=
   JOB DONE.
=------------------------------------------------------------------------------=
Warning: ieee_invalid is signaling
Warning: ieee_divide_by_zero is signaling
Warning: ieee_inexact is signaling
FORTRAN STOP
