
     Program PWSCF v.7.5 starts on 29May2026 at  2:39: 7 

     This program is part of the open-source Quantum ESPRESSO suite
     for quantum simulation of materials; please cite
         "P. Giannozzi et al., J. Phys.:Condens. Matter 21 395502 (2009);
         "P. Giannozzi et al., J. Phys.:Condens. Matter 29 465901 (2017);
         "P. Giannozzi et al., J. Chem. Phys. 152 154105 (2020);
          URL http://www.quantum-espresso.org", 
     in publications or presentations arising from this work. More details at
     http://www.quantum-espresso.org/quote

     Parallel version (MPI & OpenMP), running on       6 processor cores
     Number of MPI processes:                 1
     Threads/MPI process:                     6

     MPI processes distributed on     1 nodes
     30742 MiB available memory on the printing compute node when the environment starts
 
     Reading input from marc_endB_m167.in
Warning: card &CELL ignored
Warning: card &FCP ignored
Warning: card &RISM ignored

     Current dimensions of program PWSCF are:
     Max number of different atomic species (ntypx) = 10
     Max number of k-points (npk) =  40000
     Max angular momentum in pseudopotentials (lmaxx) =  4
 
     Subspace diagonalization in iterative solution of the eigenvalue problem:
     a serial algorithm will be used

 
     G-vector sticks info
     --------------------
     sticks:   dense  smooth     PW     G-vecs:    dense   smooth      PW
     Sum        6591    6591   1755               553421   553421   76211
 
     Using Slab Decomposition
 


     bravais-lattice index     =            0
     lattice parameter (alat)  =      16.7921  a.u.
     unit-cell volume          =    8814.7061 (a.u.)^3
     number of atoms/cell      =           96
     number of atomic types    =            3
     number of electrons       =       881.00 (up: 441.33, down: 439.67)
     number of Kohn-Sham states=          530
     kinetic-energy cutoff     =      60.0000  Ry
     charge density cutoff     =     240.0000  Ry
     scf convergence threshold =      1.0E-08
     mixing beta               =       0.2000
     number of iterations used =           12  local-TF  mixing
     Exchange-correlation= PBE
                           (   1   4   3   4   0   0   0)

     GPU acceleration is ACTIVE.  1 visible GPUs per MPI rank


     GPU used by master process:

        Device Number: 0
        Device name: NVIDIA A100-SXM4-40GB
        Compute capability : 80
        Ratio of single to double precision performance  : 2
        Memory Clock Rate (KHz): 1215000
        Memory Bus Width (bits): 5120
        Peak Memory Bandwidth (GB/s): ******

     celldm(1)=  16.792106  celldm(2)=   0.000000  celldm(3)=   0.000000
     celldm(4)=   0.000000  celldm(5)=   0.000000  celldm(6)=   0.000000

     crystal axes: (cart. coord. in units of alat)
               a(1) = (   1.000000   0.000000   0.000000 )  
               a(2) = (   0.000000   1.221022   0.000000 )  
               a(3) = (   0.000000   0.000000   1.524646 )  

     reciprocal axes: (cart. coord. in units 2 pi/alat)
               b(1) = (  1.000000  0.000000  0.000000 )  
               b(2) = (  0.000000  0.818986  0.000000 )  
               b(3) = (  0.000000  0.000000  0.655890 )  


     PseudoPot. # 1 for Fe read from file:
     /opt/pp/oncv_pbe/Fe.upf
     MD5 check sum: a5f07f5dca5be6cacb81ceb54992e4ae
     Pseudo is Norm-conserving + core correction, Zval = 16.0
     Generated using ONCVPSP code by D. R. Hamann
     Using radial grid of 1426 points,  6 beta functions with: 
                l(1) =   0
                l(2) =   0
                l(3) =   1
                l(4) =   1
                l(5) =   2
                l(6) =   2

     PseudoPot. # 2 for S  read from file:
     /opt/pp/oncv_pbe/S.upf
     MD5 check sum: 6027e7704d67ae28863b2247926ce6f3
     Pseudo is Norm-conserving + core correction, Zval =  6.0
     Generated using ONCVPSP code by D. R. Hamann
     Using radial grid of 1146 points,  6 beta functions with: 
                l(1) =   0
                l(2) =   0
                l(3) =   1
                l(4) =   1
                l(5) =   2
                l(6) =   2

     PseudoPot. # 3 for H  read from file:
     /opt/pp/oncv_pbe/H.upf
     MD5 check sum: e96aa7e3e4a958db16958554ea960e2a
     Pseudo is Norm-conserving, Zval =  1.0
     Generated using ONCVPSP code by D. R. Hamann
     Using radial grid of 1166 points,  3 beta functions with: 
                l(1) =   0
                l(2) =   0
                l(3) =   1

     atomic species   valence    mass     pseudopotential
     Fe               16.00    55.84500     Fe( 1.00)
     S                 6.00    32.06000     S ( 1.00)
     H                 1.00     1.00800     H ( 1.00)

     Starting magnetic structure 
     atomic species   magnetization
     Fe              0.065
     S               0.000
     H               0.000

     No symmetry found


                                    s                        frac. trans.

      isym =  1     identity                                     

 cryst.   s( 1) = (     1          0          0      )
                  (     0          1          0      )
                  (     0          0          1      )

 cart.    s( 1) = (  1.0000000  0.0000000  0.0000000 )
                  (  0.0000000  1.0000000  0.0000000 )
                  (  0.0000000  0.0000000  1.0000000 )


   Cartesian axes

     site n.     atom                  positions (alat units)
         1        Fe     tau(   1) = (   0.0006076  -0.0000074   0.0000273  )
         2        Fe     tau(   2) = (   0.2513239   0.3050919   0.1903997  )
         3        S      tau(   3) = (   0.1048674   0.2285577   0.0000635  )
         4        S      tau(   4) = (   0.3972633   0.3816345  -0.0000580  )
         5        S      tau(   5) = (   0.1470975   0.5335658   0.1904490  )
         6        S      tau(   6) = (   0.3546649   0.0766849   0.1905486  )
         7        Fe     tau(   7) = (   0.0005846  -0.0002519   0.3808893  )
         8        Fe     tau(   8) = (   0.2501774   0.3039327   0.5720440  )
         9        S      tau(   9) = (   0.1042658   0.2282705   0.3804082  )
        10        S      tau(  10) = (   0.3984587   0.3808371   0.3816081  )
        11        S      tau(  11) = (   0.1432935   0.5314442   0.5719049  )
        12        S      tau(  12) = (   0.3542268   0.0757000   0.5717307  )
        13        Fe     tau(  13) = (   0.0006139  -0.0003921   0.7623755  )
        14        Fe     tau(  14) = (   0.2505598   0.3031423   0.9532647  )
        15        S      tau(  15) = (   0.1038863   0.2280395   0.7628875  )
        16        S      tau(  16) = (   0.3969259   0.3760545   0.7642760  )
        17        S      tau(  17) = (   0.1478726   0.5355107   0.9543021  )
        18        S      tau(  18) = (   0.3537326   0.0754154   0.9531986  )
        19        Fe     tau(  19) = (   0.0004236  -0.0001318   1.1439482  )
        20        Fe     tau(  20) = (   0.2511696   0.3051917   1.3342963  )
        21        S      tau(  21) = (   0.1038755   0.2283655   1.1443026  )
        22        S      tau(  22) = (   0.3975437   0.3803803   1.1423935  )
        23        S      tau(  23) = (   0.1471182   0.5334448   1.3338727  )
        24        S      tau(  24) = (   0.3543705   0.0765050   1.3341741  )
        25        Fe     tau(  25) = (   0.0004644   0.6103918  -0.0002503  )
        26        Fe     tau(  26) = (   0.2503930   0.9160181   0.1897055  )
        27        S      tau(  27) = (   0.1041033   0.8391230  -0.0003163  )
        28        S      tau(  28) = (   0.3967889   0.9923567  -0.0002307  )
        29        S      tau(  29) = (   0.1468432   1.1446009   0.1903340  )
        30        S      tau(  30) = (   0.3543518   0.6871879   0.1901441  )
        31        Fe     tau(  31) = (   0.0011437   0.6102401   0.3801234  )
        32        Fe     tau(  32) = (   0.2493717   0.9162427   0.5698307  )
        33        S      tau(  33) = (   0.1019979   0.8400261   0.3795663  )
        34        S      tau(  34) = (   0.3964553   0.9934635   0.3796805  )
        35        S      tau(  35) = (   0.1466427   1.1446796   0.5718698  )
        36        S      tau(  36) = (   0.3459000   0.6913252   0.5566106  )
        37        Fe     tau(  37) = (   0.0005438   0.6097751   0.7623015  )
        38        Fe     tau(  38) = (   0.2485003   0.9159398   0.9547706  )
        39        S      tau(  39) = (   0.1027741   0.8394794   0.7622218  )
        40        S      tau(  40) = (   0.4006562   0.9907853   0.7630703  )
        41        S      tau(  41) = (   0.1466616   1.1444560   0.9530550  )
        42        S      tau(  42) = (   0.3459905   0.6880279   0.9574516  )
        43        Fe     tau(  43) = (   0.0003728   0.6103635   1.1451301  )
        44        Fe     tau(  44) = (   0.2505526   0.9156979   1.3341211  )
        45        S      tau(  45) = (   0.1022021   0.8400481   1.1443430  )
        46        S      tau(  46) = (   0.3961207   0.9923542   1.1436739  )
        47        S      tau(  47) = (   0.1467393   1.1444051   1.3342928  )
        48        S      tau(  48) = (   0.3538805   0.6870148   1.3338334  )
        49        Fe     tau(  49) = (   0.5006579  -0.0000830   0.0000258  )
        50        Fe     tau(  50) = (   0.7507745   0.3052670   0.1902060  )
        51        S      tau(  51) = (   0.6044261   0.2285749  -0.0000116  )
        52        S      tau(  52) = (   0.8970467   0.3817330  -0.0000595  )
        53        S      tau(  53) = (   0.6472329   0.5337195   0.1904710  )
        54        S      tau(  54) = (   0.8543864   0.0765460   0.1904862  )
        55        Fe     tau(  55) = (   0.5005893   0.0001141   0.3810126  )
        56        Fe     tau(  56) = (   0.7527493   0.3047570   0.5694484  )
        57        S      tau(  57) = (   0.6053313   0.2287095   0.3811734  )
        58        S      tau(  58) = (   0.8978316   0.3806184   0.3803190  )
        59        S      tau(  59) = (   0.6527464   0.5346726   0.5703769  )
        60        S      tau(  60) = (   0.8541771   0.0767288   0.5720879  )
        61        Fe     tau(  61) = (   0.5003244   0.0002515   0.7623326  )
        62        Fe     tau(  62) = (   0.7521255   0.3049941   0.9547102  )
        63        S      tau(  63) = (   0.6007631   0.2311215   0.7622084  )
        64        S      tau(  64) = (   0.8971767   0.3809158   0.7621825  )
        65        S      tau(  65) = (   0.6544842   0.5323515   0.9585996  )
        66        S      tau(  66) = (   0.8541657   0.0762691   0.9529169  )
        67        Fe     tau(  67) = (   0.5004785  -0.0001832   1.1437997  )
        68        Fe     tau(  68) = (   0.7505369   0.3051046   1.3342540  )
        69        S      tau(  69) = (   0.6046728   0.2283266   1.1437788  )
        70        S      tau(  70) = (   0.8986605   0.3806876   1.1445080  )
        71        S      tau(  71) = (   0.6472259   0.5337632   1.3339582  )
        72        S      tau(  72) = (   0.8541952   0.0763992   1.3343459  )
        73        Fe     tau(  73) = (   0.5008558   0.6103988  -0.0004967  )
        74        Fe     tau(  74) = (   0.7502907   0.9158032   0.1905044  )
        75        S      tau(  75) = (   0.6041375   0.8391946  -0.0000650  )
        76        S      tau(  76) = (   0.8965288   0.9923937  -0.0001235  )
        77        S      tau(  77) = (   0.6469030   1.1445474   0.1905258  )
        78        S      tau(  78) = (   0.8542875   0.6871803   0.1904307  )
        79        Fe     tau(  79) = (   0.5012454   0.6109398   0.3815521  )
        80        Fe     tau(  80) = (   0.7498452   0.9173797   0.5718599  )
        81        S      tau(  81) = (   0.6045643   0.8400362   0.3811817  )
        82        S      tau(  82) = (   0.8960879   0.9929462   0.3812074  )
        83        S      tau(  83) = (   0.6472910   1.1452352   0.5718831  )
        84        S      tau(  84) = (   0.8506357   0.6835947   0.5701325  )
        85        Fe     tau(  85) = (   0.7501334   0.9173331   0.9528447  )
        86        S      tau(  86) = (   0.6036293   0.8446212   0.7637010  )
        87        S      tau(  87) = (   0.8965495   0.9923169   0.7621213  )
        88        S      tau(  88) = (   0.6471044   1.1454184   0.9530728  )
        89        S      tau(  89) = (   0.8519631   0.6847668   0.9541837  )
        90        Fe     tau(  90) = (   0.5009285   0.6101651   1.1386523  )
        91        Fe     tau(  91) = (   0.7499179   0.9156398   1.3341635  )
        92        S      tau(  92) = (   0.6035081   0.8401917   1.1422517  )
        93        S      tau(  93) = (   0.8969211   0.9923750   1.1440622  )
        94        S      tau(  94) = (   0.6467151   1.1443032   1.3341294  )
        95        S      tau(  95) = (   0.8539482   0.6874257   1.3338124  )
        96        H      tau(  96) = (   0.4007819   0.6488017   0.6960276  )

   Crystallographic axes

     site n.     atom                  positions (cryst. coord.)
         1        Fe     tau(   1) = (  0.0006076 -0.0000061  0.0000179  )
         2        Fe     tau(   2) = (  0.2513239  0.2498660  0.1248813  )
         3        S      tau(   3) = (  0.1048674  0.1871856  0.0000416  )
         4        S      tau(   4) = (  0.3972633  0.3125533 -0.0000381  )
         5        S      tau(   5) = (  0.1470975  0.4369830  0.1249136  )
         6        S      tau(   6) = (  0.3546649  0.0628039  0.1249790  )
         7        Fe     tau(   7) = (  0.0005846 -0.0002063  0.2498216  )
         8        Fe     tau(   8) = (  0.2501774  0.2489167  0.3751980  )
         9        S      tau(   9) = (  0.1042658  0.1869503  0.2495060  )
        10        S      tau(  10) = (  0.3984587  0.3119003  0.2502930  )
        11        S      tau(  11) = (  0.1432935  0.4352455  0.3751068  )
        12        S      tau(  12) = (  0.3542268  0.0619972  0.3749925  )
        13        Fe     tau(  13) = (  0.0006139 -0.0003212  0.5000346  )
        14        Fe     tau(  14) = (  0.2505598  0.2482693  0.6252369  )
        15        S      tau(  15) = (  0.1038863  0.1867612  0.5003704  )
        16        S      tau(  16) = (  0.3969259  0.3079834  0.5012811  )
        17        S      tau(  17) = (  0.1478726  0.4385759  0.6259174  )
        18        S      tau(  18) = (  0.3537326  0.0617642  0.6251936  )
        19        Fe     tau(  19) = (  0.0004236 -0.0001079  0.7503044  )
        20        Fe     tau(  20) = (  0.2511696  0.2499478  0.8751518  )
        21        S      tau(  21) = (  0.1038755  0.1870282  0.7505368  )
        22        S      tau(  22) = (  0.3975437  0.3115262  0.7492847  )
        23        S      tau(  23) = (  0.1471182  0.4368839  0.8748740  )
        24        S      tau(  24) = (  0.3543705  0.0626566  0.8750717  )
        25        Fe     tau(  25) = (  0.0004644  0.4999024 -0.0001642  )
        26        Fe     tau(  26) = (  0.2503930  0.7502062  0.1244260  )
        27        S      tau(  27) = (  0.1041033  0.6872302 -0.0002075  )
        28        S      tau(  28) = (  0.3967889  0.8127264 -0.0001513  )
        29        S      tau(  29) = (  0.1468432  0.9374123  0.1248382  )
        30        S      tau(  30) = (  0.3543518  0.5627974  0.1247136  )
        31        Fe     tau(  31) = (  0.0011437  0.4997782  0.2493192  )
        32        Fe     tau(  32) = (  0.2493717  0.7503901  0.3737464  )
        33        S      tau(  33) = (  0.1019979  0.6879698  0.2489538  )
        34        S      tau(  34) = (  0.3964553  0.8136329  0.2490287  )
        35        S      tau(  35) = (  0.1466427  0.9374767  0.3750838  )
        36        S      tau(  36) = (  0.3459000  0.5661858  0.3650754  )
        37        Fe     tau(  37) = (  0.0005438  0.4993974  0.4999861  )
        38        Fe     tau(  38) = (  0.2485003  0.7501420  0.6262247  )
        39        S      tau(  39) = (  0.1027741  0.6875220  0.4999338  )
        40        S      tau(  40) = (  0.4006562  0.8114394  0.5004903  )
        41        S      tau(  41) = (  0.1466616  0.9372936  0.6250994  )
        42        S      tau(  42) = (  0.3459905  0.5634853  0.6279831  )
        43        Fe     tau(  43) = (  0.0003728  0.4998793  0.7510796  )
        44        Fe     tau(  44) = (  0.2505526  0.7499440  0.8750369  )
        45        S      tau(  45) = (  0.1022021  0.6879878  0.7505633  )
        46        S      tau(  46) = (  0.3961207  0.8127244  0.7501245  )
        47        S      tau(  47) = (  0.1467393  0.9372520  0.8751495  )
        48        S      tau(  48) = (  0.3538805  0.5626556  0.8748482  )
        49        Fe     tau(  49) = (  0.5006579 -0.0000679  0.0000169  )
        50        Fe     tau(  50) = (  0.7507745  0.2500095  0.1247542  )
        51        S      tau(  51) = (  0.6044261  0.1871997 -0.0000076  )
        52        S      tau(  52) = (  0.8970467  0.3126340 -0.0000390  )
        53        S      tau(  53) = (  0.6472329  0.4371089  0.1249281  )
        54        S      tau(  54) = (  0.8543864  0.0626901  0.1249380  )
        55        Fe     tau(  55) = (  0.5005893  0.0000934  0.2499024  )
        56        Fe     tau(  56) = (  0.7527493  0.2495918  0.3734956  )
        57        S      tau(  57) = (  0.6053313  0.1873099  0.2500079  )
        58        S      tau(  58) = (  0.8978316  0.3117212  0.2494475  )
        59        S      tau(  59) = (  0.6527464  0.4378895  0.3741046  )
        60        S      tau(  60) = (  0.8541771  0.0628399  0.3752268  )
        61        Fe     tau(  61) = (  0.5003244  0.0002059  0.5000064  )
        62        Fe     tau(  62) = (  0.7521255  0.2497860  0.6261850  )
        63        S      tau(  63) = (  0.6007631  0.1892853  0.4999250  )
        64        S      tau(  64) = (  0.8971767  0.3119648  0.4999080  )
        65        S      tau(  65) = (  0.6544842  0.4359885  0.6287361  )
        66        S      tau(  66) = (  0.8541657  0.0624633  0.6250088  )
        67        Fe     tau(  67) = (  0.5004785 -0.0001500  0.7502070  )
        68        Fe     tau(  68) = (  0.7505369  0.2498764  0.8751241  )
        69        S      tau(  69) = (  0.6046728  0.1869963  0.7501933  )
        70        S      tau(  70) = (  0.8986605  0.3117779  0.7506715  )
        71        S      tau(  71) = (  0.6472259  0.4371447  0.8749301  )
        72        S      tau(  72) = (  0.8541952  0.0625699  0.8751844  )
        73        Fe     tau(  73) = (  0.5008558  0.4999082 -0.0003258  )
        74        Fe     tau(  74) = (  0.7502907  0.7500302  0.1249499  )
        75        S      tau(  75) = (  0.6041375  0.6872888 -0.0000426  )
        76        S      tau(  76) = (  0.8965288  0.8127567 -0.0000810  )
        77        S      tau(  77) = (  0.6469030  0.9373685  0.1249640  )
        78        S      tau(  78) = (  0.8542875  0.5627911  0.1249016  )
        79        Fe     tau(  79) = (  0.5012454  0.5003512  0.2502562  )
        80        Fe     tau(  80) = (  0.7498452  0.7513213  0.3750773  )
        81        S      tau(  81) = (  0.6045643  0.6879780  0.2500133  )
        82        S      tau(  82) = (  0.8960879  0.8132092  0.2500302  )
        83        S      tau(  83) = (  0.6472910  0.9379318  0.3750925  )
        84        S      tau(  84) = (  0.8506357  0.5598546  0.3739443  )
        85        Fe     tau(  85) = (  0.7501334  0.7512832  0.6249615  )
        86        S      tau(  86) = (  0.6036293  0.6917330  0.5009040  )
        87        S      tau(  87) = (  0.8965495  0.8126938  0.4998679  )
        88        S      tau(  88) = (  0.6471044  0.9380819  0.6251111  )
        89        S      tau(  89) = (  0.8519631  0.5608146  0.6258397  )
        90        Fe     tau(  90) = (  0.5009285  0.4997168  0.7468309  )
        91        Fe     tau(  91) = (  0.7499179  0.7498963  0.8750647  )
        92        S      tau(  92) = (  0.6035081  0.6881054  0.7491916  )
        93        S      tau(  93) = (  0.8969211  0.8127414  0.7503791  )
        94        S      tau(  94) = (  0.6467151  0.9371685  0.8750424  )
        95        S      tau(  95) = (  0.8539482  0.5629922  0.8748345  )
        96        H      tau(  96) = (  0.4007819  0.5313596  0.4565177  )

     number of k points=     8  Marzari-Vanderbilt smearing, width (Ry)=  0.0150
                       cart. coord. in units 2pi/alat
        k(    1) = (   0.0000000   0.0000000   0.0000000), wk =   0.0833333
        k(    2) = (   0.0000000   0.0000000   0.2186301), wk =   0.1666667
        k(    3) = (   0.0000000  -0.4094931   0.0000000), wk =   0.0833333
        k(    4) = (   0.0000000  -0.4094931   0.2186301), wk =   0.1666667
        k(    5) = (  -0.5000000   0.0000000   0.0000000), wk =   0.0833333
        k(    6) = (  -0.5000000   0.0000000   0.2186301), wk =   0.1666667
        k(    7) = (  -0.5000000  -0.4094931   0.0000000), wk =   0.0833333
        k(    8) = (  -0.5000000  -0.4094931   0.2186301), wk =   0.1666667

                       cryst. coord.
        k(    1) = (   0.0000000   0.0000000   0.0000000), wk =   0.0833333
        k(    2) = (   0.0000000   0.0000000   0.3333333), wk =   0.1666667
        k(    3) = (   0.0000000  -0.5000000   0.0000000), wk =   0.0833333
        k(    4) = (   0.0000000  -0.5000000   0.3333333), wk =   0.1666667
        k(    5) = (  -0.5000000   0.0000000   0.0000000), wk =   0.0833333
        k(    6) = (  -0.5000000   0.0000000   0.3333333), wk =   0.1666667
        k(    7) = (  -0.5000000  -0.5000000   0.0000000), wk =   0.0833333
        k(    8) = (  -0.5000000  -0.5000000   0.3333333), wk =   0.1666667

     Dense  grid:   553421 G-vectors     FFT dimensions: (  90, 108, 128)

     Dynamical RAM for                 wfc:     559.48 MB

     Dynamical RAM for     wfc (w. buffer):    9511.12 MB

     Dynamical RAM for           str. fact:      25.33 MB

     Dynamical RAM for           local pot:       0.00 MB

     Dynamical RAM for          nlocal pot:    1810.39 MB

     Dynamical RAM for                qrad:       3.73 MB

     Dynamical RAM for          rho,v,vnew:     107.62 MB

     Dynamical RAM for               rhoin:      35.87 MB

     Dynamical RAM for            rho*nmix:     405.34 MB

     Dynamical RAM for           G-vectors:      35.89 MB

     Dynamical RAM for          h,s,v(r/c):      51.43 MB

     Dynamical RAM for          <psi|beta>:      13.87 MB

     Dynamical RAM for                 psi:    1118.96 MB

     Dynamical RAM for                hpsi:    1118.96 MB

     Dynamical RAM for      wfcinit/wfcrot:    1125.39 MB

     Estimated static dynamical RAM per process >      11.35 GB

     Estimated max dynamical RAM per process >      13.99 GB
     Generating pointlists ...
     new r_m :   0.1011 (alat units)  1.6978 (a.u.) for type    1
     new r_m :   0.0642 (alat units)  1.0788 (a.u.) for type    2
     new r_m :   0.0642 (alat units)  1.0788 (a.u.) for type    3

     Initial potential from superposition of free atoms

     starting charge     880.9860, renormalised to     881.0000
     Starting wfcs are  567 randomized atomic wfcs

     total cpu time spent up to now is       34.7 secs

     per-process dynamical memory: 10383.1 Mb

     Self-consistent Calculation
[tb_dev] Currently allocated     3.22E+01 Mbytes, locked:    0 /   3
[tb_pin] Currently allocated     0.00E+00 Mbytes, locked:    0 /   0

     iteration #  1     ecut=    60.00 Ry     beta= 0.20
     Davidson diagonalization with overlap

---- Real-time Memory Report at c_bands before calling an iterative solver
         12238 MiB given to the printing process from OS
         10168 MiB allocation reported by mallinfo(arena+hblkhd)
         18403 MiB available memory on the node where the printing process lives
     GPU memory used/free/total (MiB): 26028 / 14413 / 40441
------------------
     ethr =  1.00E-02,  avg # of iterations =  2.0

     total cpu time spent up to now is      120.3 secs

     total energy              =   -9183.20013823 Ry
     estimated scf accuracy    <      16.66939919 Ry

     total magnetization       =     1.67 Bohr mag/cell
     absolute magnetization    =    13.12 Bohr mag/cell
[tb_dev] Currently allocated     0.00E+00 Mbytes, locked:    0 /   0
[tb_pin] Currently allocated     0.00E+00 Mbytes, locked:    0 /   0

     iteration #  2     ecut=    60.00 Ry     beta= 0.20
     Davidson diagonalization with overlap

---- Real-time Memory Report at c_bands before calling an iterative solver
         12313 MiB given to the printing process from OS
         10642 MiB allocation reported by mallinfo(arena+hblkhd)
         18302 MiB available memory on the node where the printing process lives
     GPU memory used/free/total (MiB): 28816 / 11625 / 40441
------------------
     ethr =  1.89E-03,  avg # of iterations =  2.0

     total cpu time spent up to now is      154.3 secs

     total energy              =   -9183.33628939 Ry
     estimated scf accuracy    <       5.84194927 Ry

     total magnetization       =     1.67 Bohr mag/cell
     absolute magnetization    =    12.60 Bohr mag/cell
[tb_dev] Currently allocated     0.00E+00 Mbytes, locked:    0 /   0
[tb_pin] Currently allocated     0.00E+00 Mbytes, locked:    0 /   0

     iteration #  3     ecut=    60.00 Ry     beta= 0.20
     Davidson diagonalization with overlap

---- Real-time Memory Report at c_bands before calling an iterative solver
         12396 MiB given to the printing process from OS
         10692 MiB allocation reported by mallinfo(arena+hblkhd)
         14940 MiB available memory on the node where the printing process lives
     GPU memory used/free/total (MiB): 28822 / 11619 / 40441
------------------
     ethr =  6.63E-04,  avg # of iterations =  2.0

     total cpu time spent up to now is      181.2 secs

     total energy              =   -9183.35094192 Ry
     estimated scf accuracy    <       1.60992703 Ry

     total magnetization       =     1.67 Bohr mag/cell
     absolute magnetization    =    10.46 Bohr mag/cell
[tb_dev] Currently allocated     0.00E+00 Mbytes, locked:    0 /   0
[tb_pin] Currently allocated     0.00E+00 Mbytes, locked:    0 /   0

     iteration #  4     ecut=    60.00 Ry     beta= 0.20
     Davidson diagonalization with overlap

---- Real-time Memory Report at c_bands before calling an iterative solver
         12521 MiB given to the printing process from OS
         10760 MiB allocation reported by mallinfo(arena+hblkhd)
          4892 MiB available memory on the node where the printing process lives
     GPU memory used/free/total (MiB): 28822 / 11619 / 40441
------------------
     ethr =  1.83E-04,  avg # of iterations =  2.8
     Spin Component #  1
     Minimization algorithm failed to find Fermi energy: reverting to bisection
     Possible cause: smearing is larger than the electronic band-gap.

     total cpu time spent up to now is      209.0 secs

     total energy              =   -9183.48011426 Ry
     estimated scf accuracy    <       0.16377996 Ry

     total magnetization       =     1.67 Bohr mag/cell
     absolute magnetization    =     6.34 Bohr mag/cell
[tb_dev] Currently allocated     0.00E+00 Mbytes, locked:    0 /   0
[tb_pin] Currently allocated     0.00E+00 Mbytes, locked:    0 /   0

     iteration #  5     ecut=    60.00 Ry     beta= 0.20
     Davidson diagonalization with overlap

---- Real-time Memory Report at c_bands before calling an iterative solver
         12570 MiB given to the printing process from OS
         10811 MiB allocation reported by mallinfo(arena+hblkhd)
          3880 MiB available memory on the node where the printing process lives
     GPU memory used/free/total (MiB): 28822 / 11619 / 40441
------------------
     ethr =  1.86E-05,  avg # of iterations =  9.0
     Spin Component #  1
     Minimization algorithm failed to find Fermi energy: reverting to bisection
     Possible cause: smearing is larger than the electronic band-gap.

     total cpu time spent up to now is      285.0 secs

     total energy              =   -9183.51826710 Ry
     estimated scf accuracy    <       0.04947936 Ry

     total magnetization       =     1.67 Bohr mag/cell
     absolute magnetization    =     4.84 Bohr mag/cell
[tb_dev] Currently allocated     0.00E+00 Mbytes, locked:    0 /   0
[tb_pin] Currently allocated     0.00E+00 Mbytes, locked:    0 /   0

     iteration #  6     ecut=    60.00 Ry     beta= 0.20
     Davidson diagonalization with overlap

---- Real-time Memory Report at c_bands before calling an iterative solver
         12659 MiB given to the printing process from OS
         10861 MiB allocation reported by mallinfo(arena+hblkhd)
          3378 MiB available memory on the node where the printing process lives
     GPU memory used/free/total (MiB): 28822 / 11619 / 40441
------------------
     ethr =  5.62E-06,  avg # of iterations =  1.6
     Spin Component #  1
     Minimization algorithm failed to find Fermi energy: reverting to bisection
     Possible cause: smearing is larger than the electronic band-gap.

     total cpu time spent up to now is      354.9 secs

     total energy              =   -9183.51957051 Ry
     estimated scf accuracy    <       0.02892393 Ry

     total magnetization       =     1.67 Bohr mag/cell
     absolute magnetization    =     4.56 Bohr mag/cell
[tb_dev] Currently allocated     0.00E+00 Mbytes, locked:    0 /   0
[tb_pin] Currently allocated     0.00E+00 Mbytes, locked:    0 /   0

     iteration #  7     ecut=    60.00 Ry     beta= 0.20
     Davidson diagonalization with overlap

---- Real-time Memory Report at c_bands before calling an iterative solver
         12722 MiB given to the printing process from OS
         10895 MiB allocation reported by mallinfo(arena+hblkhd)
          3857 MiB available memory on the node where the printing process lives
     GPU memory used/free/total (MiB): 28822 / 11619 / 40441
------------------
     ethr =  3.28E-06,  avg # of iterations =  4.4
     Spin Component #  1
     Minimization algorithm failed to find Fermi energy: reverting to bisection
     Possible cause: smearing is larger than the electronic band-gap.

     total cpu time spent up to now is      400.4 secs

     total energy              =   -9183.52191478 Ry
     estimated scf accuracy    <       0.01102684 Ry

     total magnetization       =     1.67 Bohr mag/cell
     absolute magnetization    =     3.63 Bohr mag/cell
[tb_dev] Currently allocated     0.00E+00 Mbytes, locked:    0 /   0
[tb_pin] Currently allocated     0.00E+00 Mbytes, locked:    0 /   0

     iteration #  8     ecut=    60.00 Ry     beta= 0.20
     Davidson diagonalization with overlap

---- Real-time Memory Report at c_bands before calling an iterative solver
         12790 MiB given to the printing process from OS
         10929 MiB allocation reported by mallinfo(arena+hblkhd)
          4407 MiB available memory on the node where the printing process lives
     GPU memory used/free/total (MiB): 28822 / 11619 / 40441
------------------
     ethr =  1.25E-06,  avg # of iterations =  5.3

     total cpu time spent up to now is      428.1 secs

     total energy              =   -9183.52333214 Ry
     estimated scf accuracy    <       0.00196273 Ry

     total magnetization       =     1.67 Bohr mag/cell
     absolute magnetization    =     2.91 Bohr mag/cell
[tb_dev] Currently allocated     0.00E+00 Mbytes, locked:    0 /   0
[tb_pin] Currently allocated     0.00E+00 Mbytes, locked:    0 /   0

     iteration #  9     ecut=    60.00 Ry     beta= 0.20
     Davidson diagonalization with overlap

---- Real-time Memory Report at c_bands before calling an iterative solver
         12857 MiB given to the printing process from OS
         10963 MiB allocation reported by mallinfo(arena+hblkhd)
          7181 MiB available memory on the node where the printing process lives
     GPU memory used/free/total (MiB): 28822 / 11619 / 40441
------------------
     ethr =  2.23E-07,  avg # of iterations =  3.9

     total cpu time spent up to now is      458.7 secs

     total energy              =   -9183.51839064 Ry
     estimated scf accuracy    <       0.00550010 Ry

     total magnetization       =     1.67 Bohr mag/cell
     absolute magnetization    =     2.46 Bohr mag/cell
[tb_dev] Currently allocated     0.00E+00 Mbytes, locked:    0 /   0
[tb_pin] Currently allocated     0.00E+00 Mbytes, locked:    0 /   0

     iteration # 10     ecut=    60.00 Ry     beta= 0.20
     Davidson diagonalization with overlap

---- Real-time Memory Report at c_bands before calling an iterative solver
         12925 MiB given to the printing process from OS
         10997 MiB allocation reported by mallinfo(arena+hblkhd)
          6166 MiB available memory on the node where the printing process lives
     GPU memory used/free/total (MiB): 28822 / 11619 / 40441
------------------
     ethr =  2.23E-07,  avg # of iterations =  1.1

     total cpu time spent up to now is      488.4 secs

     total energy              =   -9183.51841604 Ry
     estimated scf accuracy    <       0.00507054 Ry

     total magnetization       =     1.67 Bohr mag/cell
     absolute magnetization    =     2.46 Bohr mag/cell
[tb_dev] Currently allocated     0.00E+00 Mbytes, locked:    0 /   0
[tb_pin] Currently allocated     0.00E+00 Mbytes, locked:    0 /   0

     iteration # 11     ecut=    60.00 Ry     beta= 0.20
     Davidson diagonalization with overlap

---- Real-time Memory Report at c_bands before calling an iterative solver
         12992 MiB given to the printing process from OS
         11030 MiB allocation reported by mallinfo(arena+hblkhd)
          3169 MiB available memory on the node where the printing process lives
     GPU memory used/free/total (MiB): 28822 / 11619 / 40441
------------------
     ethr =  2.23E-07,  avg # of iterations =  1.0

     total cpu time spent up to now is      551.2 secs

     total energy              =   -9183.51839262 Ry
     estimated scf accuracy    <       0.00462182 Ry

     total magnetization       =     1.67 Bohr mag/cell
     absolute magnetization    =     2.45 Bohr mag/cell
[tb_dev] Currently allocated     0.00E+00 Mbytes, locked:    0 /   0
[tb_pin] Currently allocated     0.00E+00 Mbytes, locked:    0 /   0

     iteration # 12     ecut=    60.00 Ry     beta= 0.20
     Davidson diagonalization with overlap

---- Real-time Memory Report at c_bands before calling an iterative solver
         13059 MiB given to the printing process from OS
         11064 MiB allocation reported by mallinfo(arena+hblkhd)
          3898 MiB available memory on the node where the printing process lives
     GPU memory used/free/total (MiB): 28822 / 11619 / 40441
------------------
     ethr =  2.23E-07,  avg # of iterations =  1.9

     total cpu time spent up to now is      618.9 secs

     total energy              =   -9183.51872141 Ry
     estimated scf accuracy    <       0.00065480 Ry

     total magnetization       =     1.67 Bohr mag/cell
     absolute magnetization    =     2.32 Bohr mag/cell
[tb_dev] Currently allocated     0.00E+00 Mbytes, locked:    0 /   0
[tb_pin] Currently allocated     0.00E+00 Mbytes, locked:    0 /   0

     iteration # 13     ecut=    60.00 Ry     beta= 0.20
     Davidson diagonalization with overlap

---- Real-time Memory Report at c_bands before calling an iterative solver
         13127 MiB given to the printing process from OS
         11098 MiB allocation reported by mallinfo(arena+hblkhd)
          8839 MiB available memory on the node where the printing process lives
     GPU memory used/free/total (MiB): 28822 / 11619 / 40441
------------------
     ethr =  7.43E-08,  avg # of iterations =  1.8

     total cpu time spent up to now is      652.9 secs

     total energy              =   -9183.51880840 Ry
     estimated scf accuracy    <       0.00029275 Ry

     total magnetization       =     1.67 Bohr mag/cell
     absolute magnetization    =     2.31 Bohr mag/cell
[tb_dev] Currently allocated     0.00E+00 Mbytes, locked:    0 /   0
[tb_pin] Currently allocated     0.00E+00 Mbytes, locked:    0 /   0

     iteration # 14     ecut=    60.00 Ry     beta= 0.20
     Davidson diagonalization with overlap

---- Real-time Memory Report at c_bands before calling an iterative solver
         13194 MiB given to the printing process from OS
         11132 MiB allocation reported by mallinfo(arena+hblkhd)
          9536 MiB available memory on the node where the printing process lives
     GPU memory used/free/total (MiB): 28822 / 11619 / 40441
------------------
     ethr =  3.32E-08,  avg # of iterations =  3.5

     total cpu time spent up to now is      681.2 secs

     total energy              =   -9183.51886434 Ry
     estimated scf accuracy    <       0.00009575 Ry

     total magnetization       =     1.67 Bohr mag/cell
     absolute magnetization    =     2.31 Bohr mag/cell
[tb_dev] Currently allocated     0.00E+00 Mbytes, locked:    0 /   0
[tb_pin] Currently allocated     0.00E+00 Mbytes, locked:    0 /   0

     iteration # 15     ecut=    60.00 Ry     beta= 0.20
     Davidson diagonalization with overlap

---- Real-time Memory Report at c_bands before calling an iterative solver
         13194 MiB given to the printing process from OS
         11132 MiB allocation reported by mallinfo(arena+hblkhd)
         10104 MiB available memory on the node where the printing process lives
     GPU memory used/free/total (MiB): 28822 / 11619 / 40441
------------------
     ethr =  1.09E-08,  avg # of iterations =  5.4

     total cpu time spent up to now is      711.9 secs

     total energy              =   -9183.51890581 Ry
     estimated scf accuracy    <       0.00001993 Ry

     total magnetization       =     1.67 Bohr mag/cell
     absolute magnetization    =     2.34 Bohr mag/cell
[tb_dev] Currently allocated     0.00E+00 Mbytes, locked:    0 /   0
[tb_pin] Currently allocated     0.00E+00 Mbytes, locked:    0 /   0

     iteration # 16     ecut=    60.00 Ry     beta= 0.20
     Davidson diagonalization with overlap

---- Real-time Memory Report at c_bands before calling an iterative solver
         13194 MiB given to the printing process from OS
         11132 MiB allocation reported by mallinfo(arena+hblkhd)
         15705 MiB available memory on the node where the printing process lives
     GPU memory used/free/total (MiB): 28834 / 11607 / 40441
------------------
     ethr =  2.26E-09,  avg # of iterations =  2.7

     total cpu time spent up to now is      753.2 secs

     total energy              =   -9183.51890904 Ry
     estimated scf accuracy    <       0.00001048 Ry

     total magnetization       =     1.67 Bohr mag/cell
     absolute magnetization    =     2.34 Bohr mag/cell
[tb_dev] Currently allocated     0.00E+00 Mbytes, locked:    0 /   0
[tb_pin] Currently allocated     0.00E+00 Mbytes, locked:    0 /   0

     iteration # 17     ecut=    60.00 Ry     beta= 0.20
     Davidson diagonalization with overlap

---- Real-time Memory Report at c_bands before calling an iterative solver
         13194 MiB given to the printing process from OS
         11132 MiB allocation reported by mallinfo(arena+hblkhd)
         21182 MiB available memory on the node where the printing process lives
     GPU memory used/free/total (MiB): 28834 / 11607 / 40441
------------------
     ethr =  1.19E-09,  avg # of iterations =  5.1

     total cpu time spent up to now is      841.9 secs

     total energy              =   -9183.51891508 Ry
     estimated scf accuracy    <       0.00000283 Ry

     total magnetization       =     1.67 Bohr mag/cell
     absolute magnetization    =     2.36 Bohr mag/cell
[tb_dev] Currently allocated     0.00E+00 Mbytes, locked:    0 /   0
[tb_pin] Currently allocated     0.00E+00 Mbytes, locked:    0 /   0

     iteration # 18     ecut=    60.00 Ry     beta= 0.20
     Davidson diagonalization with overlap

---- Real-time Memory Report at c_bands before calling an iterative solver
         13194 MiB given to the printing process from OS
         11132 MiB allocation reported by mallinfo(arena+hblkhd)
         31758 MiB available memory on the node where the printing process lives
     GPU memory used/free/total (MiB): 28834 / 11607 / 40441
------------------
     ethr =  3.21E-10,  avg # of iterations =  5.3

     total cpu time spent up to now is      891.3 secs

     total energy              =   -9183.51891704 Ry
     estimated scf accuracy    <       0.00000133 Ry

     total magnetization       =     1.67 Bohr mag/cell
     absolute magnetization    =     2.37 Bohr mag/cell
[tb_dev] Currently allocated     0.00E+00 Mbytes, locked:    0 /   0
[tb_pin] Currently allocated     0.00E+00 Mbytes, locked:    0 /   0

     iteration # 19     ecut=    60.00 Ry     beta= 0.20
     Davidson diagonalization with overlap

---- Real-time Memory Report at c_bands before calling an iterative solver
         13194 MiB given to the printing process from OS
         11132 MiB allocation reported by mallinfo(arena+hblkhd)
         32781 MiB available memory on the node where the printing process lives
     GPU memory used/free/total (MiB): 28834 / 11607 / 40441
------------------
     ethr =  1.51E-10,  avg # of iterations =  2.9

     total cpu time spent up to now is      920.4 secs

     total energy              =   -9183.51891733 Ry
     estimated scf accuracy    <       0.00000089 Ry

     total magnetization       =     1.67 Bohr mag/cell
     absolute magnetization    =     2.37 Bohr mag/cell
[tb_dev] Currently allocated     0.00E+00 Mbytes, locked:    0 /   0
[tb_pin] Currently allocated     0.00E+00 Mbytes, locked:    0 /   0

     iteration # 20     ecut=    60.00 Ry     beta= 0.20
     Davidson diagonalization with overlap

---- Real-time Memory Report at c_bands before calling an iterative solver
         13194 MiB given to the printing process from OS
         11132 MiB allocation reported by mallinfo(arena+hblkhd)
         33694 MiB available memory on the node where the printing process lives
     GPU memory used/free/total (MiB): 28834 / 11607 / 40441
------------------
     ethr =  1.01E-10,  avg # of iterations =  5.0

     total cpu time spent up to now is      951.9 secs

     total energy              =   -9183.51891772 Ry
     estimated scf accuracy    <       0.00000025 Ry

     total magnetization       =     1.67 Bohr mag/cell
     absolute magnetization    =     2.37 Bohr mag/cell
[tb_dev] Currently allocated     0.00E+00 Mbytes, locked:    0 /   0
[tb_pin] Currently allocated     0.00E+00 Mbytes, locked:    0 /   0

     iteration # 21     ecut=    60.00 Ry     beta= 0.20
     Davidson diagonalization with overlap

---- Real-time Memory Report at c_bands before calling an iterative solver
         13194 MiB given to the printing process from OS
         11132 MiB allocation reported by mallinfo(arena+hblkhd)
         34020 MiB available memory on the node where the printing process lives
     GPU memory used/free/total (MiB): 28834 / 11607 / 40441
------------------
     ethr =  2.82E-11,  avg # of iterations =  4.1

     total cpu time spent up to now is     1009.8 secs

     total energy              =   -9183.51891778 Ry
     estimated scf accuracy    <       0.00000009 Ry

     total magnetization       =     1.67 Bohr mag/cell
     absolute magnetization    =     2.37 Bohr mag/cell
[tb_dev] Currently allocated     0.00E+00 Mbytes, locked:    0 /   0
[tb_pin] Currently allocated     0.00E+00 Mbytes, locked:    0 /   0

     iteration # 22     ecut=    60.00 Ry     beta= 0.20
     Davidson diagonalization with overlap

---- Real-time Memory Report at c_bands before calling an iterative solver
         13194 MiB given to the printing process from OS
         11132 MiB allocation reported by mallinfo(arena+hblkhd)
         34677 MiB available memory on the node where the printing process lives
     GPU memory used/free/total (MiB): 28834 / 11607 / 40441
------------------
     ethr =  1.02E-11,  avg # of iterations =  5.1

     total cpu time spent up to now is     1091.4 secs

     total energy              =   -9183.51891782 Ry
     estimated scf accuracy    <       0.00000003 Ry

     total magnetization       =     1.67 Bohr mag/cell
     absolute magnetization    =     2.38 Bohr mag/cell
[tb_dev] Currently allocated     0.00E+00 Mbytes, locked:    0 /   0
[tb_pin] Currently allocated     0.00E+00 Mbytes, locked:    0 /   0

     iteration # 23     ecut=    60.00 Ry     beta= 0.20
     Davidson diagonalization with overlap

---- Real-time Memory Report at c_bands before calling an iterative solver
         13194 MiB given to the printing process from OS
         11132 MiB allocation reported by mallinfo(arena+hblkhd)
         35960 MiB available memory on the node where the printing process lives
     GPU memory used/free/total (MiB): 28834 / 11607 / 40441
------------------
     ethr =  3.95E-12,  avg # of iterations =  4.8

     total cpu time spent up to now is     1138.2 secs

     total energy              =   -9183.51891784 Ry
     estimated scf accuracy    <       0.00000001 Ry

     total magnetization       =     1.67 Bohr mag/cell
     absolute magnetization    =     2.38 Bohr mag/cell
[tb_dev] Currently allocated     0.00E+00 Mbytes, locked:    0 /   0
[tb_pin] Currently allocated     0.00E+00 Mbytes, locked:    0 /   0

     iteration # 24     ecut=    60.00 Ry     beta= 0.20
     Davidson diagonalization with overlap

---- Real-time Memory Report at c_bands before calling an iterative solver
         13194 MiB given to the printing process from OS
         11132 MiB allocation reported by mallinfo(arena+hblkhd)
         36652 MiB available memory on the node where the printing process lives
     GPU memory used/free/total (MiB): 28834 / 11607 / 40441
------------------
     ethr =  1.15E-12,  avg # of iterations =  5.3
 
     Magnetic moment per site  (integrated on atomic sphere of radius R)
     atom   1 (R=0.101)  charge= 13.8408  magn=  0.0104
     atom   2 (R=0.101)  charge= 13.8396  magn=  0.0155
     atom   3 (R=0.064)  charge=  0.9786  magn=  0.0007
     atom   4 (R=0.064)  charge=  0.9798  magn=  0.0008
     atom   5 (R=0.064)  charge=  0.9794  magn=  0.0010
     atom   6 (R=0.064)  charge=  0.9793  magn=  0.0004
     atom   7 (R=0.101)  charge= 13.8406  magn= -0.0025
     atom   8 (R=0.101)  charge= 13.8340  magn=  0.0883
     atom   9 (R=0.064)  charge=  0.9794  magn=  0.0007
     atom  10 (R=0.064)  charge=  0.9789  magn= -0.0003
     atom  11 (R=0.064)  charge=  0.9792  magn=  0.0001
     atom  12 (R=0.064)  charge=  0.9794  magn=  0.0001
     atom  13 (R=0.101)  charge= 13.8432  magn= -0.0182
     atom  14 (R=0.101)  charge= 13.8388  magn=  0.0847
     atom  15 (R=0.064)  charge=  0.9791  magn= -0.0006
     atom  16 (R=0.064)  charge=  0.9828  magn=  0.0102
     atom  17 (R=0.064)  charge=  0.9790  magn= -0.0008
     atom  18 (R=0.064)  charge=  0.9796  magn= -0.0001
     atom  19 (R=0.101)  charge= 13.8413  magn= -0.0004
     atom  20 (R=0.101)  charge= 13.8401  magn=  0.0091
     atom  21 (R=0.064)  charge=  0.9798  magn=  0.0002
     atom  22 (R=0.064)  charge=  0.9793  magn= -0.0015
     atom  23 (R=0.064)  charge=  0.9795  magn=  0.0007
     atom  24 (R=0.064)  charge=  0.9793  magn=  0.0005
     atom  25 (R=0.101)  charge= 13.8387  magn=  0.0152
     atom  26 (R=0.101)  charge= 13.8411  magn=  0.0006
     atom  27 (R=0.064)  charge=  0.9792  magn=  0.0004
     atom  28 (R=0.064)  charge=  0.9796  magn=  0.0006
     atom  29 (R=0.064)  charge=  0.9796  magn=  0.0005
     atom  30 (R=0.064)  charge=  0.9791  magn= -0.0001
     atom  31 (R=0.101)  charge= 13.8429  magn=  0.0179
     atom  32 (R=0.101)  charge= 13.8457  magn= -0.0038
     atom  33 (R=0.064)  charge=  0.9795  magn=  0.0003
     atom  34 (R=0.064)  charge=  0.9792  magn=  0.0001
     atom  35 (R=0.064)  charge=  0.9798  magn=  0.0006
     atom  36 (R=0.064)  charge=  0.9871  magn=  0.0005
     atom  37 (R=0.101)  charge= 13.8365  magn=  0.0049
     atom  38 (R=0.101)  charge= 13.8405  magn=  0.0681
     atom  39 (R=0.064)  charge=  0.9792  magn=  0.0003
     atom  40 (R=0.064)  charge=  0.9770  magn=  0.0004
     atom  41 (R=0.064)  charge=  0.9800  magn=  0.0005
     atom  42 (R=0.064)  charge=  0.9829  magn=  0.0112
     atom  43 (R=0.101)  charge= 13.8439  magn=  0.0567
     atom  44 (R=0.101)  charge= 13.8413  magn= -0.0091
     atom  45 (R=0.064)  charge=  0.9796  magn=  0.0003
     atom  46 (R=0.064)  charge=  0.9792  magn= -0.0007
     atom  47 (R=0.064)  charge=  0.9795  magn=  0.0007
     atom  48 (R=0.064)  charge=  0.9790  magn= -0.0005
     atom  49 (R=0.101)  charge= 13.8406  magn=  0.0109
     atom  50 (R=0.101)  charge= 13.8421  magn= -0.0050
     atom  51 (R=0.064)  charge=  0.9790  magn=  0.0006
     atom  52 (R=0.064)  charge=  0.9797  magn=  0.0004
     atom  53 (R=0.064)  charge=  0.9791  magn= -0.0000
     atom  54 (R=0.064)  charge=  0.9793  magn=  0.0005
     atom  55 (R=0.101)  charge= 13.8413  magn= -0.0028
     atom  56 (R=0.101)  charge= 13.8393  magn=  0.0638
     atom  57 (R=0.064)  charge=  0.9788  magn= -0.0003
     atom  58 (R=0.064)  charge=  0.9795  magn=  0.0002
     atom  59 (R=0.064)  charge=  0.9818  magn=  0.0094
     atom  60 (R=0.064)  charge=  0.9798  magn=  0.0004
     atom  61 (R=0.101)  charge= 13.8408  magn=  0.0376
     atom  62 (R=0.101)  charge= 13.8400  magn=  0.1121
     atom  63 (R=0.064)  charge=  0.9766  magn=  0.0003
     atom  64 (R=0.064)  charge=  0.9792  magn=  0.0000
     atom  65 (R=0.064)  charge=  0.9830  magn=  0.0185
     atom  66 (R=0.064)  charge=  0.9796  magn=  0.0005
     atom  67 (R=0.101)  charge= 13.8410  magn= -0.0107
     atom  68 (R=0.101)  charge= 13.8412  magn= -0.0075
     atom  69 (R=0.064)  charge=  0.9787  magn= -0.0009
     atom  70 (R=0.064)  charge=  0.9793  magn=  0.0003
     atom  71 (R=0.064)  charge=  0.9792  magn= -0.0005
     atom  72 (R=0.064)  charge=  0.9793  magn=  0.0007
     atom  73 (R=0.101)  charge= 13.8397  magn= -0.0218
     atom  74 (R=0.101)  charge= 13.8407  magn=  0.0082
     atom  75 (R=0.064)  charge=  0.9793  magn=  0.0008
     atom  76 (R=0.064)  charge=  0.9793  magn=  0.0008
     atom  77 (R=0.064)  charge=  0.9796  magn=  0.0005
     atom  78 (R=0.064)  charge=  0.9792  magn=  0.0003
     atom  79 (R=0.101)  charge= 13.8365  magn=  0.1249
     atom  80 (R=0.101)  charge= 13.8353  magn=  0.0965
     atom  81 (R=0.064)  charge=  0.9795  magn= -0.0002
     atom  82 (R=0.064)  charge=  0.9797  magn=  0.0009
     atom  83 (R=0.064)  charge=  0.9797  magn= -0.0001
     atom  84 (R=0.064)  charge=  0.9794  magn=  0.0002
     atom  85 (R=0.101)  charge= 13.8382  magn=  0.0737
     atom  86 (R=0.064)  charge=  0.9833  magn=  0.0097
     atom  87 (R=0.064)  charge=  0.9794  magn= -0.0002
     atom  88 (R=0.064)  charge=  0.9797  magn= -0.0001
     atom  89 (R=0.064)  charge=  0.9790  magn= -0.0004
     atom  90 (R=0.101)  charge= 13.8118  magn=  0.4751
     atom  91 (R=0.101)  charge= 13.8400  magn=  0.0123
     atom  92 (R=0.064)  charge=  0.9798  magn= -0.0014
     atom  93 (R=0.064)  charge=  0.9801  magn=  0.0006
     atom  94 (R=0.064)  charge=  0.9796  magn=  0.0005
     atom  95 (R=0.064)  charge=  0.9795  magn=  0.0004
     atom  96 (R=0.064)  charge=  0.6525  magn=  0.0008

     total cpu time spent up to now is     1175.0 secs

     End of self-consistent calculation

 ------ SPIN UP ------------


          k = 0.0000 0.0000 0.0000 ( 69157 PWs)   bands (ev):

   -75.3929 -75.0813 -74.9402 -74.9361 -74.9198 -74.9182 -74.9062 -74.9034
   -74.8897 -74.8861 -74.8856 -74.8824 -74.8815 -74.8786 -74.8775 -74.8729
   -74.8719 -74.8711 -74.8691 -74.8658 -74.8654 -74.8639 -74.8634 -74.8634
   -74.8599 -74.8571 -74.8551 -74.8536 -74.8482 -74.8399 -74.8395 -41.4639
   -41.4445 -41.1874 -41.0962 -41.0672 -41.0199 -41.0052 -40.9927 -40.9863
   -40.9612 -40.9597 -40.9560 -40.9520 -40.9502 -40.9495 -40.9439 -40.9427
   -40.9416 -40.9410 -40.9378 -40.9374 -40.9362 -40.9351 -40.9342 -40.9336
   -40.9319 -40.9306 -40.9287 -40.9265 -40.9210 -40.9180 -40.9165 -40.9154
   -40.9105 -40.8955 -40.8952 -40.8762 -40.8751 -40.8626 -40.8619 -40.8366
   -40.8364 -40.8352 -40.8297 -40.8273 -40.8237 -40.8233 -40.8203 -40.8193
   -40.8183 -40.8164 -40.8154 -40.8136 -40.8115 -40.8107 -40.8094 -40.8084
   -40.8075 -40.8072 -40.8041 -40.8014 -40.7990 -40.7971 -40.7946 -40.7916
   -40.7905 -40.7898 -40.7878 -40.7870 -40.7867 -40.7850 -40.7840 -40.7809
   -40.7798 -40.7782 -40.7747 -40.7744 -40.7728 -40.7699 -40.7656 -40.7640
   -40.7627 -40.7626 -40.7616 -40.7599 -40.7580 -40.7565 -40.7533 -40.7524
   -40.7504 -40.7459 -40.7392 -40.7279  -4.3793  -3.8912  -3.8188  -3.5062
    -3.4566  -3.1704  -3.0562  -3.0334  -3.0217  -2.9899  -2.9188  -2.7544
    -2.6558  -2.6427  -2.6369  -2.6203  -2.5771  -2.5603  -2.5485  -2.4895
    -2.4794  -2.3825  -2.3524  -2.3360  -2.3185  -2.2483  -2.2296  -2.1021
    -2.0968  -2.0147  -1.9866  -1.9538  -1.3740  -1.3384  -1.0039  -0.9456
    -0.8845  -0.8399  -0.6763  -0.6241  -0.5266  -0.4600  -0.4432  -0.4206
    -0.3437  -0.3405  -0.2707  -0.2105  -0.1227  -0.0223   0.0843   0.0880
     0.0982   0.2701   0.2950   0.3065   0.3294   0.3953   0.4303   0.4508
     0.4763   0.5446   0.5896   0.6927   4.5886   4.7014   4.7196   4.7873
     5.1217   5.1563   5.1613   5.1786   5.2056   5.2330   5.2591   5.2649
     5.2674   5.2873   5.2990   5.3199   5.3957   5.4634   5.5458   5.6527
     5.6764   5.6942   5.7215   5.7679   5.8484   5.8857   5.8950   5.9112
     5.9184   5.9378   5.9496   5.9685   5.9808   6.0055   6.0261   6.0713
     6.0965   6.2028   6.2340   6.2996   6.5038   6.5711   6.5911   6.6115
     6.7086   6.7229   6.7886   6.8042   6.8195   6.8236   6.8276   6.8639
     6.9566   6.9749   7.0199   7.0635   7.1448   7.1483   7.1594   7.1840
     7.2016   7.2119   7.2333   7.2495   7.2804   7.3504   7.3761   7.4229
     7.6433   7.7723   7.7988   7.8085   7.8274   7.8319   7.8380   7.8487
     7.8536   7.8600   7.8661   7.8739   7.8792   7.8899   7.8952   7.9019
     7.9124   7.9489   7.9946   8.0591   8.1374   8.2013   8.2105   8.2376
     8.2847   8.2988   8.3015   8.3501   8.3554   8.3821   8.4410   8.4653
     8.4886   8.5006   8.5168   8.5240   8.5310   8.5542   8.5861   8.6089
     8.6322   8.6368   8.6668   8.6778   8.6792   8.6892   8.7351   8.7447
     8.7656   8.7896   8.7975   8.8139   8.8385   8.8861   8.9096   8.9399
     8.9470   8.9823   9.0209   9.1139   9.2142   9.3267   9.3662   9.3887
     9.4178   9.4529   9.4788   9.4883   9.4938   9.5389   9.5794   9.5863
     9.5938   9.6064   9.6131   9.6148   9.6520   9.7155   9.7368   9.8493
     9.9590   9.9747  10.1647  10.1935  10.2046  10.2279  10.3563  10.3705
    10.4042  10.4281  10.4508  10.6234  10.6600  10.6941  10.7031  10.7267
    10.7524  10.7844  10.8149  10.8332  10.8401  10.8495  10.8539  10.8727
    10.8820  10.8882  10.8898  10.9064  10.9432  10.9503  10.9597  10.9964
    11.0125  11.0412  11.0981  11.1315  11.1482  11.1630  11.1764  11.1861
    11.1921  11.2420  11.2572  11.2610  11.2636  11.2766  11.2816  11.2842
    11.2912  11.2952  11.3152  11.3295  11.3534  11.3616  11.3650  11.3722
    11.3753  11.3880  11.3955  11.3987  11.4220  11.4445  11.4637  11.4846
    11.4883  11.5105  11.5210  11.5754  11.6025  11.6096  11.6235  11.6596
    11.6697  11.6740  11.7000  11.7140  11.7199  11.7231  11.7617  11.7741
    11.7790  11.8553  11.8916  11.9011  11.9063  11.9394  11.9424  11.9520
    11.9641  11.9759  11.9918  12.0298  12.0611  12.0759  12.0883  12.1066
    12.1300  12.1698  12.1901  12.2329  12.2615  12.2672  12.2895  12.3008
    12.3367  13.1173  13.1282  13.2999  13.3289  13.3388  13.3572  13.3660
    13.4054  13.4298  13.5987  13.6129  13.6352  13.6415  13.6542  13.6854
    13.7030  13.7197  13.7583  13.7859  13.8032  13.8142  13.8272  13.8358
    13.8486  13.8657  13.8940  13.9119  13.9249  13.9282  13.9421  13.9546
    13.9625  13.9936  14.0520  14.0832  14.1175  14.1355  14.1401  14.1446
    14.1502  14.1587  14.1692  14.1881  14.2204  14.2279  14.2727  14.2980
    14.3075  14.3181  14.3469  14.3578  14.3967  14.4159  14.4341  14.4782
    14.5263  14.5308  14.5416  14.6419  14.6546  14.7177  14.7213  14.7526
    14.7687  14.7767  14.7817  14.8015  14.8229  14.8344  14.8759  14.8874
    14.9228  14.9381  14.9595  14.9852  14.9964  15.0520  15.0634  15.1552
    15.1716  15.2381  15.2488  15.2696  15.3673  15.3848  15.4347  15.4836
    15.4963  15.5220

     occupation numbers 
     1.0000   1.0000   1.0000   1.0000   1.0000   1.0000   1.0000   1.0000
     1.0000   1.0000   1.0000   1.0000   1.0000   1.0000   1.0000   1.0000
     1.0000   1.0000   1.0000   1.0000   1.0000   1.0000   1.0000   1.0000
     1.0000   1.0000   1.0000   1.0000   1.0000   1.0000   1.0000   1.0000
     1.0000   1.0000   1.0000   1.0000   1.0000   1.0000   1.0000   1.0000
     1.0000   1.0000   1.0000   1.0000   1.0000   1.0000   1.0000   1.0000
     1.0000   1.0000   1.0000   1.0000   1.0000   1.0000   1.0000   1.0000
     1.0000   1.0000   1.0000   1.0000   1.0000   1.0000   1.0000   1.0000
     1.0000   1.0000   1.0000   1.0000   1.0000   1.0000   1.0000   1.0000
     1.0000   1.0000   1.0000   1.0000   1.0000   1.0000   1.0000   1.0000
     1.0000   1.0000   1.0000   1.0000   1.0000   1.0000   1.0000   1.0000
     1.0000   1.0000   1.0000   1.0000   1.0000   1.0000   1.0000   1.0000
     1.0000   1.0000   1.0000   1.0000   1.0000   1.0000   1.0000   1.0000
     1.0000   1.0000   1.0000   1.0000   1.0000   1.0000   1.0000   1.0000
     1.0000   1.0000   1.0000   1.0000   1.0000   1.0000   1.0000   1.0000
     1.0000   1.0000   1.0000   1.0000   1.0000   1.0000   1.0000   1.0000
     1.0000   1.0000   1.0000   1.0000   1.0000   1.0000   1.0000   1.0000
     1.0000   1.0000   1.0000   1.0000   1.0000   1.0000   1.0000   1.0000
     1.0000   1.0000   1.0000   1.0000   1.0000   1.0000   1.0000   1.0000
     1.0000   1.0000   1.0000   1.0000   1.0000   1.0000   1.0000   1.0000
     1.0000   1.0000   1.0000   1.0000   1.0000   1.0000   1.0000   1.0000
     1.0000   1.0000   1.0000   1.0000   1.0000   1.0000   1.0000   1.0000
     1.0000   1.0000   1.0000   1.0000   1.0000   1.0000   1.0000   1.0000
     1.0000   1.0000   1.0000   1.0000   1.0000   1.0000   1.0000   1.0000
     1.0000   1.0000   1.0000   1.0000   1.0000   1.0000   1.0000   1.0000
     1.0000   1.0000   1.0000   1.0000   1.0000   1.0000   1.0000   1.0000
     1.0000   1.0000   1.0000   1.0000   1.0000   1.0000   1.0000   1.0000
     1.0000   1.0000   1.0000   1.0000   1.0000   1.0000   1.0000   1.0000
     1.0000   1.0000   1.0000   1.0000   1.0000   1.0000   1.0000   1.0000
     1.0000   1.0000   1.0000   1.0000   1.0000   1.0000   1.0000   1.0000
     1.0000   1.0000   1.0000   1.0000   1.0000   1.0000   1.0000   1.0000
     1.0000   1.0000   1.0000   1.0000   1.0000   1.0000   1.0000   1.0000
     1.0000   1.0000   1.0000   1.0000   1.0000   1.0000   1.0000   1.0000
     1.0000   1.0000   1.0000   1.0000   1.0000   1.0000   1.0000   1.0000
     1.0000   1.0000   1.0000   1.0000   1.0000   1.0000   1.0000   1.0000
     1.0000   1.0000   1.0000   1.0000   1.0000   1.0000   1.0000   1.0000
     1.0000   1.0000   1.0000   1.0000   1.0000   1.0000   1.0000   1.0000
     1.0000   1.0000   1.0000   1.0000   1.0000   1.0000   1.0000   1.0000
     1.0000   1.0000   1.0000   1.0000   1.0000   1.0000   1.0000   1.0000
     1.0000   1.0000   1.0000   1.0000   1.0000   1.0000   1.0000   1.0000
     1.0000   1.0000   1.0000   1.0000   1.0000   1.0000   1.0000   1.0000
     1.0000   1.0000   1.0000   1.0000   1.0000   1.0000   1.0000   1.0000
     1.0000   1.0000   1.0000   1.0000   1.0000   1.0000   1.0000   1.0000
     1.0000   1.0000   1.0000   1.0000   1.0000   1.0000   1.0000   1.0000
     1.0000   1.0000   1.0000   1.0000   1.0000   1.0000   1.0000   1.0000
     1.0000   1.0000   1.0000   1.0000   1.0000   1.0000   1.0000   1.0000
     1.0000   1.0000   1.0000   1.0000   1.0000   1.0000   1.0000   1.0000
     1.0000   1.0000   1.0000   1.0000   1.0000   1.0000   1.0000   1.0000
     1.0000   1.0000   1.0000   1.0000   1.0000   1.0000   1.0000   1.0000
     1.0000   1.0000   1.0000   1.0000   1.0000   1.0000   1.0000   1.0000
     1.0000   1.0000   1.0000   1.0000   1.0000   1.0000   1.0000   1.0000
     1.0000   1.0000   1.0000   1.0000   1.0000   1.0000   1.0000   1.0000
     1.0000   1.0000   1.0000   1.0000   1.0000   1.0000   1.0000   1.0000
     1.0000   1.0000   1.0000   1.0000   1.0000   1.0000   1.0000   1.0000
     1.0000   1.0000   1.0000   1.0000   1.0000   1.0000   1.0000   1.0000
     1.0000   0.4175   0.3808   0.0460   0.0282   0.0237   0.0169   0.0143
     0.0065   0.0038   0.0000   0.0000   0.0000   0.0000   0.0000   0.0000
     0.0000   0.0000   0.0000   0.0000   0.0000   0.0000   0.0000   0.0000
     0.0000   0.0000   0.0000   0.0000   0.0000   0.0000   0.0000   0.0000
     0.0000   0.0000   0.0000   0.0000   0.0000   0.0000   0.0000   0.0000
     0.0000   0.0000   0.0000   0.0000   0.0000   0.0000   0.0000   0.0000
     0.0000   0.0000   0.0000   0.0000   0.0000   0.0000   0.0000   0.0000
     0.0000   0.0000   0.0000   0.0000   0.0000   0.0000   0.0000   0.0000
     0.0000   0.0000   0.0000   0.0000   0.0000   0.0000   0.0000   0.0000
     0.0000   0.0000   0.0000   0.0000   0.0000   0.0000   0.0000   0.0000
     0.0000   0.0000   0.0000   0.0000   0.0000   0.0000   0.0000   0.0000
     0.0000   0.0000

          k = 0.0000 0.0000 0.2186 ( 69203 PWs)   bands (ev):

   -75.3930 -75.0814 -74.9403 -74.9363 -74.9199 -74.9183 -74.9063 -74.9035
   -74.8898 -74.8862 -74.8857 -74.8825 -74.8816 -74.8787 -74.8777 -74.8729
   -74.8721 -74.8713 -74.8692 -74.8659 -74.8655 -74.8641 -74.8636 -74.8634
   -74.8600 -74.8573 -74.8553 -74.8538 -74.8484 -74.8400 -74.8398 -41.4644
   -41.4446 -41.1877 -41.0966 -41.0674 -41.0202 -41.0055 -40.9931 -40.9865
   -40.9612 -40.9600 -40.9565 -40.9521 -40.9508 -40.9498 -40.9439 -40.9430
   -40.9418 -40.9414 -40.9382 -40.9377 -40.9366 -40.9352 -40.9348 -40.9343
   -40.9327 -40.9313 -40.9288 -40.9273 -40.9215 -40.9182 -40.9170 -40.9162
   -40.9111 -40.8959 -40.8957 -40.8765 -40.8756 -40.8626 -40.8625 -40.8370
   -40.8364 -40.8359 -40.8300 -40.8277 -40.8236 -40.8235 -40.8206 -40.8194
   -40.8190 -40.8169 -40.8159 -40.8144 -40.8116 -40.8109 -40.8096 -40.8089
   -40.8081 -40.8075 -40.8047 -40.8019 -40.7993 -40.7977 -40.7949 -40.7916
   -40.7906 -40.7903 -40.7881 -40.7872 -40.7868 -40.7858 -40.7845 -40.7805
   -40.7801 -40.7780 -40.7750 -40.7748 -40.7731 -40.7705 -40.7652 -40.7641
   -40.7636 -40.7631 -40.7616 -40.7599 -40.7572 -40.7562 -40.7535 -40.7522
   -40.7499 -40.7458 -40.7389 -40.7277  -4.3193  -4.1380  -3.5250  -3.4386
    -3.4057  -3.2904  -3.2585  -3.0882  -2.9886  -2.8915  -2.8465  -2.7901
    -2.7853  -2.7636  -2.6172  -2.5729  -2.5498  -2.5182  -2.4874  -2.4463
    -2.4410  -2.4252  -2.3216  -2.3035  -2.2831  -2.2310  -2.2202  -2.1345
    -2.1289  -2.0898  -1.9892  -1.9481  -1.3263  -1.2957  -1.1608  -1.1121
    -0.7410  -0.6525  -0.6325  -0.6039  -0.5559  -0.5251  -0.4494  -0.4186
    -0.3706  -0.3585  -0.2788  -0.2087  -0.1284  -0.0601   0.1096   0.1175
     0.1694   0.2292   0.2437   0.3098   0.3427   0.3630   0.4176   0.4730
     0.4836   0.5449   0.5919   0.6929   4.6173   4.7647   4.7800   4.8299
     4.9507   4.9741   5.0175   5.2282   5.2666   5.2885   5.3124   5.3553
     5.3700   5.3771   5.4060   5.4341   5.4772   5.5068   5.5180   5.5324
     5.5478   5.5646   5.5959   5.6086   5.6460   5.6904   5.8049   5.8400
     5.9276   5.9475   5.9657   5.9794   6.0059   6.1022   6.1680   6.2205
     6.3701   6.4022   6.4223   6.4412   6.4724   6.4773   6.4886   6.5398
     6.5954   6.6426   6.7051   6.7390   6.7932   6.8344   6.8466   6.8762
     6.8979   6.9285   6.9818   7.0328   7.0683   7.1149   7.1967   7.2422
     7.2554   7.2887   7.3017   7.3314   7.3456   7.4104   7.4144   7.4390
     7.4872   7.5209   7.6168   7.6805   7.7351   7.7641   7.7801   7.8402
     7.8600   7.8750   7.8928   7.8948   7.9397   7.9789   8.0065   8.0348
     8.0709   8.0944   8.1129   8.1234   8.1636   8.1931   8.2257   8.2631
     8.2916   8.3403   8.3527   8.3620   8.3841   8.3954   8.4088   8.4123
     8.4233   8.4396   8.4493   8.4654   8.4886   8.5138   8.5288   8.5501
     8.5822   8.5962   8.6251   8.6755   8.7029   8.7233   8.7620   8.7780
     8.7996   8.8171   8.8387   8.8479   8.8512   8.8713   8.9227   8.9908
     9.0492   9.0657   9.1121   9.1671   9.2017   9.2486   9.3215   9.3520
     9.3918   9.4446   9.4679   9.4742   9.4872   9.5033   9.5187   9.5644
     9.5811   9.6038   9.6602   9.6656   9.7625   9.8097   9.8425   9.8533
     9.9388  10.0213  10.0336  10.1311  10.1900  10.2384  10.2588  10.3622
    10.4286  10.4420  10.4806  10.4910  10.4975  10.5317  10.5614  10.5900
    10.6691  10.6806  10.7185  10.7429  10.7701  10.7870  10.8010  10.8126
    10.8436  10.8514  10.8832  10.9173  10.9268  10.9871  10.9904  11.0372
    11.0747  11.1110  11.1203  11.1474  11.1762  11.2048  11.2155  11.2220
    11.2391  11.2440  11.2509  11.2636  11.2691  11.2786  11.2863  11.2887
    11.3083  11.3358  11.3519  11.3726  11.3935  11.4080  11.4178  11.4261
    11.4535  11.4603  11.4675  11.4779  11.4822  11.4925  11.4951  11.5012
    11.5080  11.5159  11.5405  11.5543  11.5765  11.6042  11.6121  11.6277
    11.6374  11.6873  11.6942  11.7087  11.7388  11.7663  11.7867  11.8024
    11.8366  11.8761  11.9164  11.9232  11.9371  11.9520  11.9871  11.9906
    11.9913  11.9992  12.0144  12.0213  12.0416  12.0491  12.0748  12.1085
    12.1227  12.1336  12.1515  12.1580  12.1879  12.2047  12.2255  12.2529
    12.3375  13.1520  13.1682  13.2580  13.2826  13.3447  13.4141  13.4500
    13.4751  13.4777  13.5034  13.5192  13.5606  13.5841  13.6150  13.6583
    13.6652  13.6978  13.7072  13.7208  13.7488  13.7746  13.7916  13.8010
    13.8217  13.8384  13.8466  13.8583  13.8776  13.9212  13.9432  13.9566
    13.9863  14.0311  14.0473  14.0538  14.1254  14.1388  14.1488  14.1684
    14.1783  14.1878  14.2080  14.2689  14.2914  14.3227  14.3494  14.3797
    14.4215  14.4250  14.4296  14.4367  14.4442  14.4573  14.4736  14.4951
    14.5040  14.5233  14.5521  14.5647  14.5944  14.6218  14.6382  14.6412
    14.6546  14.7033  14.7430  14.7938  14.8310  14.8564  14.8871  14.9153
    14.9604  14.9858  15.0353  15.0402  15.0477  15.1235  15.1345  15.1569
    15.1817  15.2062  15.2381  15.2826  15.2989  15.3485  15.3712  15.3941
    15.4106  15.4478

     occupation numbers 
     1.0000   1.0000   1.0000   1.0000   1.0000   1.0000   1.0000   1.0000
     1.0000   1.0000   1.0000   1.0000   1.0000   1.0000   1.0000   1.0000
     1.0000   1.0000   1.0000   1.0000   1.0000   1.0000   1.0000   1.0000
     1.0000   1.0000   1.0000   1.0000   1.0000   1.0000   1.0000   1.0000
     1.0000   1.0000   1.0000   1.0000   1.0000   1.0000   1.0000   1.0000
     1.0000   1.0000   1.0000   1.0000   1.0000   1.0000   1.0000   1.0000
     1.0000   1.0000   1.0000   1.0000   1.0000   1.0000   1.0000   1.0000
     1.0000   1.0000   1.0000   1.0000   1.0000   1.0000   1.0000   1.0000
     1.0000   1.0000   1.0000   1.0000   1.0000   1.0000   1.0000   1.0000
     1.0000   1.0000   1.0000   1.0000   1.0000   1.0000   1.0000   1.0000
     1.0000   1.0000   1.0000   1.0000   1.0000   1.0000   1.0000   1.0000
     1.0000   1.0000   1.0000   1.0000   1.0000   1.0000   1.0000   1.0000
     1.0000   1.0000   1.0000   1.0000   1.0000   1.0000   1.0000   1.0000
     1.0000   1.0000   1.0000   1.0000   1.0000   1.0000   1.0000   1.0000
     1.0000   1.0000   1.0000   1.0000   1.0000   1.0000   1.0000   1.0000
     1.0000   1.0000   1.0000   1.0000   1.0000   1.0000   1.0000   1.0000
     1.0000   1.0000   1.0000   1.0000   1.0000   1.0000   1.0000   1.0000
     1.0000   1.0000   1.0000   1.0000   1.0000   1.0000   1.0000   1.0000
     1.0000   1.0000   1.0000   1.0000   1.0000   1.0000   1.0000   1.0000
     1.0000   1.0000   1.0000   1.0000   1.0000   1.0000   1.0000   1.0000
     1.0000   1.0000   1.0000   1.0000   1.0000   1.0000   1.0000   1.0000
     1.0000   1.0000   1.0000   1.0000   1.0000   1.0000   1.0000   1.0000
     1.0000   1.0000   1.0000   1.0000   1.0000   1.0000   1.0000   1.0000
     1.0000   1.0000   1.0000   1.0000   1.0000   1.0000   1.0000   1.0000
     1.0000   1.0000   1.0000   1.0000   1.0000   1.0000   1.0000   1.0000
     1.0000   1.0000   1.0000   1.0000   1.0000   1.0000   1.0000   1.0000
     1.0000   1.0000   1.0000   1.0000   1.0000   1.0000   1.0000   1.0000
     1.0000   1.0000   1.0000   1.0000   1.0000   1.0000   1.0000   1.0000
     1.0000   1.0000   1.0000   1.0000   1.0000   1.0000   1.0000   1.0000
     1.0000   1.0000   1.0000   1.0000   1.0000   1.0000   1.0000   1.0000
     1.0000   1.0000   1.0000   1.0000   1.0000   1.0000   1.0000   1.0000
     1.0000   1.0000   1.0000   1.0000   1.0000   1.0000   1.0000   1.0000
     1.0000   1.0000   1.0000   1.0000   1.0000   1.0000   1.0000   1.0000
     1.0000   1.0000   1.0000   1.0000   1.0000   1.0000   1.0000   1.0000
     1.0000   1.0000   1.0000   1.0000   1.0000   1.0000   1.0000   1.0000
     1.0000   1.0000   1.0000   1.0000   1.0000   1.0000   1.0000   1.0000
     1.0000   1.0000   1.0000   1.0000   1.0000   1.0000   1.0000   1.0000
     1.0000   1.0000   1.0000   1.0000   1.0000   1.0000   1.0000   1.0000
     1.0000   1.0000   1.0000   1.0000   1.0000   1.0000   1.0000   1.0000
     1.0000   1.0000   1.0000   1.0000   1.0000   1.0000   1.0000   1.0000
     1.0000   1.0000   1.0000   1.0000   1.0000   1.0000   1.0000   1.0000
     1.0000   1.0000   1.0000   1.0000   1.0000   1.0000   1.0000   1.0000
     1.0000   1.0000   1.0000   1.0000   1.0000   1.0000   1.0000   1.0000
     1.0000   1.0000   1.0000   1.0000   1.0000   1.0000   1.0000   1.0000
     1.0000   1.0000   1.0000   1.0000   1.0000   1.0000   1.0000   1.0000
     1.0000   1.0000   1.0000   1.0000   1.0000   1.0000   1.0000   1.0000
     1.0000   1.0000   1.0000   1.0000   1.0000   1.0000   1.0000   1.0000
     1.0000   1.0000   1.0000   1.0000   1.0000   1.0000   1.0000   1.0000
     1.0000   1.0000   1.0000   1.0000   1.0000   1.0000   1.0000   1.0000
     1.0000   1.0000   1.0000   1.0000   1.0000   1.0000   1.0000   1.0000
     1.0000   1.0000   1.0000   1.0000   1.0000   1.0000   1.0000   1.0000
     1.0000   1.0000   1.0000   1.0000   1.0000   1.0000   1.0000   1.0000
     1.0000   1.0000   1.0000   1.0000   1.0000   1.0000   1.0000   1.0000
     1.0000   1.0000   1.0000   1.0000   1.0000   1.0000   1.0000   1.0000
     1.0000   1.0000   1.0000   1.0000   1.0000   1.0000   1.0000   1.0000
     1.0000   0.3067   0.2609   0.0869   0.0603   0.0213   0.0054   0.0024
     0.0013   0.0013   0.0007   0.0004   0.0001   0.0001   0.0000   0.0000
     0.0000   0.0000   0.0000   0.0000   0.0000   0.0000   0.0000   0.0000
     0.0000   0.0000   0.0000   0.0000   0.0000   0.0000   0.0000   0.0000
     0.0000   0.0000   0.0000   0.0000   0.0000   0.0000   0.0000   0.0000
     0.0000   0.0000   0.0000   0.0000   0.0000   0.0000   0.0000   0.0000
     0.0000   0.0000   0.0000   0.0000   0.0000   0.0000   0.0000   0.0000
     0.0000   0.0000   0.0000   0.0000   0.0000   0.0000   0.0000   0.0000
     0.0000   0.0000   0.0000   0.0000   0.0000   0.0000   0.0000   0.0000
     0.0000   0.0000   0.0000   0.0000   0.0000   0.0000   0.0000   0.0000
     0.0000   0.0000   0.0000   0.0000   0.0000   0.0000   0.0000   0.0000
     0.0000   0.0000

          k = 0.0000-0.4095 0.0000 ( 69190 PWs)   bands (ev):

   -75.3930 -75.0814 -74.9402 -74.9362 -74.9198 -74.9183 -74.9063 -74.9035
   -74.8897 -74.8862 -74.8857 -74.8824 -74.8816 -74.8786 -74.8776 -74.8729
   -74.8720 -74.8713 -74.8692 -74.8658 -74.8655 -74.8640 -74.8636 -74.8635
   -74.8600 -74.8573 -74.8553 -74.8537 -74.8483 -74.8399 -74.8398 -41.4639
   -41.4451 -41.1875 -41.0962 -41.0674 -41.0200 -41.0052 -40.9928 -40.9867
   -40.9609 -40.9597 -40.9562 -40.9517 -40.9503 -40.9497 -40.9434 -40.9426
   -40.9414 -40.9411 -40.9379 -40.9373 -40.9361 -40.9352 -40.9344 -40.9339
   -40.9324 -40.9311 -40.9284 -40.9270 -40.9211 -40.9178 -40.9165 -40.9161
   -40.9107 -40.8955 -40.8954 -40.8760 -40.8753 -40.8628 -40.8621 -40.8366
   -40.8366 -40.8357 -40.8303 -40.8273 -40.8242 -40.8232 -40.8201 -40.8192
   -40.8185 -40.8166 -40.8155 -40.8140 -40.8116 -40.8109 -40.8092 -40.8087
   -40.8079 -40.8072 -40.8043 -40.8016 -40.7989 -40.7973 -40.7951 -40.7920
   -40.7911 -40.7899 -40.7879 -40.7874 -40.7869 -40.7861 -40.7844 -40.7809
   -40.7800 -40.7787 -40.7750 -40.7747 -40.7736 -40.7706 -40.7656 -40.7645
   -40.7639 -40.7635 -40.7623 -40.7607 -40.7581 -40.7576 -40.7541 -40.7529
   -40.7503 -40.7464 -40.7395 -40.7284  -4.1568  -4.1286  -3.7147  -3.6298
    -3.6133  -3.5923  -3.0059  -2.7894  -2.7625  -2.7577  -2.7011  -2.5820
    -2.5756  -2.5676  -2.5632  -2.5505  -2.5288  -2.5160  -2.5134  -2.4957
    -2.4847  -2.4769  -2.4689  -2.4374  -2.3677  -2.3273  -2.3209  -2.2923
    -2.2138  -2.1709  -2.1580  -2.1442  -1.0377  -0.9795  -0.9620  -0.9498
    -0.7925  -0.6947  -0.6874  -0.6821  -0.6779  -0.6249  -0.6145  -0.5706
    -0.3375  -0.2987  -0.2958  -0.1618   0.0397   0.0465   0.0670   0.0759
     0.1383   0.1671   0.2187   0.3000   0.3045   0.3309   0.4409   0.4514
     0.4567   0.5484   0.5970   0.6795   4.6465   4.8219   4.8826   5.2153
     5.2302   5.2361   5.2464   5.2846   5.3014   5.3099   5.3314   5.3465
     5.3541   5.3584   5.3626   5.3676   5.3753   5.3777   5.3909   5.4017
     5.4062   5.4295   5.4398   5.4527   5.4863   5.5357   5.7029   5.7450
     5.7586   5.7685   6.0062   6.1488   6.1817   6.1983   6.2470   6.2746
     6.3210   6.3303   6.3625   6.3803   6.5606   6.6374   6.6384   6.6513
     6.6569   6.6777   6.7018   6.7397   6.7474   6.7632   6.7709   6.7975
     6.8222   6.8559   7.0354   7.1037   7.1207   7.1786   7.2359   7.2446
     7.2664   7.3302   7.4502   7.5186   7.5627   7.5745   7.5877   7.6016
     7.6166   7.6839   7.6932   7.7092   7.7212   7.7606   7.7906   7.8435
     7.8557   7.8623   7.8661   7.8807   7.8954   7.9039   7.9131   7.9218
     7.9405   7.9423   7.9767   7.9929   7.9999   8.0222   8.0277   8.0459
     8.0902   8.1375   8.1446   8.1606   8.1912   8.2580   8.2742   8.3011
     8.3389   8.3621   8.3747   8.3882   8.3917   8.4328   8.4558   8.4796
     8.5337   8.6259   8.7643   8.8106   8.8223   8.8295   8.8432   8.8740
     8.8785   8.9052   8.9426   8.9768   9.0365   9.0497   9.0542   9.1256
     9.1487   9.1810   9.1868   9.1974   9.2583   9.2664   9.3423   9.4045
     9.4391   9.4527   9.4672   9.5081   9.5272   9.5374   9.5406   9.5523
     9.5590   9.5731   9.5765   9.5881   9.6522   9.6913   9.7920   9.8796
     9.8975   9.9796  10.0566  10.0824  10.1251  10.1670  10.3145  10.4016
    10.4176  10.4301  10.4431  10.5567  10.5924  10.6074  10.6259  10.6425
    10.7400  10.7601  10.7820  10.7875  10.8030  10.8114  10.8248  10.8392
    10.8601  10.8887  10.9027  10.9123  10.9449  10.9767  10.9807  11.0013
    11.0036  11.0276  11.1045  11.1168  11.1624  11.1882  11.2022  11.2139
    11.2708  11.2864  11.2932  11.2980  11.3024  11.3161  11.3227  11.3276
    11.3327  11.3366  11.3427  11.3643  11.3808  11.4055  11.4285  11.4357
    11.4467  11.4602  11.4641  11.4807  11.4844  11.5043  11.5083  11.5167
    11.5271  11.5312  11.5349  11.5410  11.6147  11.6202  11.6362  11.6475
    11.6810  11.6873  11.6955  11.7468  11.7613  11.7906  11.8111  11.8292
    11.8525  11.8737  11.8761  11.9006  11.9231  11.9248  11.9285  11.9425
    11.9575  11.9681  11.9735  11.9782  11.9910  12.0002  12.0179  12.0202
    12.0268  12.0577  12.0700  12.0761  12.1392  12.2084  12.2403  12.2533
    12.3574  13.2555  13.2924  13.3377  13.3598  13.3771  13.3863  13.5128
    13.5285  13.5587  13.5852  13.5950  13.6026  13.6201  13.6242  13.6505
    13.6649  13.7184  13.7268  13.7290  13.7481  13.8077  13.8439  13.8617
    13.8663  13.8756  13.8994  13.9135  13.9452  13.9511  13.9583  13.9798
    13.9844  14.0014  14.0135  14.0183  14.0233  14.0387  14.0432  14.0624
    14.1239  14.1269  14.1303  14.1524  14.1994  14.2217  14.2413  14.2540
    14.2577  14.2648  14.2676  14.2720  14.2891  14.3005  14.3135  14.3559
    14.4021  14.4197  14.4373  14.7254  14.8071  14.8280  14.8343  14.8479
    14.8759  14.8920  14.9012  14.9589  14.9694  15.0051  15.0431  15.0592
    15.0637  15.0842  15.0943  15.1134  15.1203  15.1422  15.1607  15.2060
    15.2323  15.2384  15.2628  15.2944  15.3113  15.3229  15.3251  15.3415
    15.3892  15.4833

     occupation numbers 
     1.0000   1.0000   1.0000   1.0000   1.0000   1.0000   1.0000   1.0000
     1.0000   1.0000   1.0000   1.0000   1.0000   1.0000   1.0000   1.0000
     1.0000   1.0000   1.0000   1.0000   1.0000   1.0000   1.0000   1.0000
     1.0000   1.0000   1.0000   1.0000   1.0000   1.0000   1.0000   1.0000
     1.0000   1.0000   1.0000   1.0000   1.0000   1.0000   1.0000   1.0000
     1.0000   1.0000   1.0000   1.0000   1.0000   1.0000   1.0000   1.0000
     1.0000   1.0000   1.0000   1.0000   1.0000   1.0000   1.0000   1.0000
     1.0000   1.0000   1.0000   1.0000   1.0000   1.0000   1.0000   1.0000
     1.0000   1.0000   1.0000   1.0000   1.0000   1.0000   1.0000   1.0000
     1.0000   1.0000   1.0000   1.0000   1.0000   1.0000   1.0000   1.0000
     1.0000   1.0000   1.0000   1.0000   1.0000   1.0000   1.0000   1.0000
     1.0000   1.0000   1.0000   1.0000   1.0000   1.0000   1.0000   1.0000
     1.0000   1.0000   1.0000   1.0000   1.0000   1.0000   1.0000   1.0000
     1.0000   1.0000   1.0000   1.0000   1.0000   1.0000   1.0000   1.0000
     1.0000   1.0000   1.0000   1.0000   1.0000   1.0000   1.0000   1.0000
     1.0000   1.0000   1.0000   1.0000   1.0000   1.0000   1.0000   1.0000
     1.0000   1.0000   1.0000   1.0000   1.0000   1.0000   1.0000   1.0000
     1.0000   1.0000   1.0000   1.0000   1.0000   1.0000   1.0000   1.0000
     1.0000   1.0000   1.0000   1.0000   1.0000   1.0000   1.0000   1.0000
     1.0000   1.0000   1.0000   1.0000   1.0000   1.0000   1.0000   1.0000
     1.0000   1.0000   1.0000   1.0000   1.0000   1.0000   1.0000   1.0000
     1.0000   1.0000   1.0000   1.0000   1.0000   1.0000   1.0000   1.0000
     1.0000   1.0000   1.0000   1.0000   1.0000   1.0000   1.0000   1.0000
     1.0000   1.0000   1.0000   1.0000   1.0000   1.0000   1.0000   1.0000
     1.0000   1.0000   1.0000   1.0000   1.0000   1.0000   1.0000   1.0000
     1.0000   1.0000   1.0000   1.0000   1.0000   1.0000   1.0000   1.0000
     1.0000   1.0000   1.0000   1.0000   1.0000   1.0000   1.0000   1.0000
     1.0000   1.0000   1.0000   1.0000   1.0000   1.0000   1.0000   1.0000
     1.0000   1.0000   1.0000   1.0000   1.0000   1.0000   1.0000   1.0000
     1.0000   1.0000   1.0000   1.0000   1.0000   1.0000   1.0000   1.0000
     1.0000   1.0000   1.0000   1.0000   1.0000   1.0000   1.0000   1.0000
     1.0000   1.0000   1.0000   1.0000   1.0000   1.0000   1.0000   1.0000
     1.0000   1.0000   1.0000   1.0000   1.0000   1.0000   1.0000   1.0000
     1.0000   1.0000   1.0000   1.0000   1.0000   1.0000   1.0000   1.0000
     1.0000   1.0000   1.0000   1.0000   1.0000   1.0000   1.0000   1.0000
     1.0000   1.0000   1.0000   1.0000   1.0000   1.0000   1.0000   1.0000
     1.0000   1.0000   1.0000   1.0000   1.0000   1.0000   1.0000   1.0000
     1.0000   1.0000   1.0000   1.0000   1.0000   1.0000   1.0000   1.0000
     1.0000   1.0000   1.0000   1.0000   1.0000   1.0000   1.0000   1.0000
     1.0000   1.0000   1.0000   1.0000   1.0000   1.0000   1.0000   1.0000
     1.0000   1.0000   1.0000   1.0000   1.0000   1.0000   1.0000   1.0000
     1.0000   1.0000   1.0000   1.0000   1.0000   1.0000   1.0000   1.0000
     1.0000   1.0000   1.0000   1.0000   1.0000   1.0000   1.0000   1.0000
     1.0000   1.0000   1.0000   1.0000   1.0000   1.0000   1.0000   1.0000
[...]
     atom   73 type  1   force =    -0.00011792    0.00015129    0.00027183
     atom   74 type  1   force =     0.00005275   -0.00010201    0.00019667
     atom   75 type  2   force =     0.00489135   -0.00294274   -0.00005900
     atom   76 type  2   force =    -0.00483864    0.00303012    0.00004279
     atom   77 type  2   force =    -0.00493532   -0.00300014   -0.00000280
     atom   78 type  2   force =     0.00506898    0.00315603    0.00006388
     atom   79 type  1   force =    -0.00142072    0.00040524    0.00021072
     atom   80 type  1   force =     0.00043403   -0.00107505   -0.00154065
     atom   81 type  2   force =     0.00513383   -0.00260367    0.00033246
     atom   82 type  2   force =    -0.00521342    0.00300795    0.00042065
     atom   83 type  2   force =    -0.00492547   -0.00314577    0.00032086
     atom   84 type  2   force =     0.00652274    0.00384021   -0.00021461
     atom   85 type  1   force =     0.00054856   -0.00068909    0.00184228
     atom   86 type  2   force =     0.00245076   -0.01204563    0.00007111
     atom   87 type  2   force =    -0.00501890    0.00328963   -0.00000284
     atom   88 type  2   force =    -0.00501624   -0.00315348   -0.00031140
     atom   89 type  2   force =     0.00625564    0.00374302    0.00008920
     atom   90 type  1   force =    -0.00074432    0.00041172    0.00105582
     atom   91 type  1   force =    -0.00005589   -0.00008850   -0.00054811
     atom   92 type  2   force =     0.00505267   -0.00263569   -0.00028964
     atom   93 type  2   force =    -0.00521226    0.00309269   -0.00037443
     atom   94 type  2   force =    -0.00494074   -0.00305882   -0.00001269
     atom   95 type  2   force =     0.00524650    0.00316435   -0.00026907
     atom   96 type  3   force =     0.00000000    0.00000000    0.00000000
     The Hubbard contrib.    to forces
     atom    1 type  1   force =     0.00000000    0.00000000    0.00000000
     atom    2 type  1   force =     0.00000000    0.00000000    0.00000000
     atom    3 type  2   force =     0.00000000    0.00000000    0.00000000
     atom    4 type  2   force =     0.00000000    0.00000000    0.00000000
     atom    5 type  2   force =     0.00000000    0.00000000    0.00000000
     atom    6 type  2   force =     0.00000000    0.00000000    0.00000000
     atom    7 type  1   force =     0.00000000    0.00000000    0.00000000
     atom    8 type  1   force =     0.00000000    0.00000000    0.00000000
     atom    9 type  2   force =     0.00000000    0.00000000    0.00000000
     atom   10 type  2   force =     0.00000000    0.00000000    0.00000000
     atom   11 type  2   force =     0.00000000    0.00000000    0.00000000
     atom   12 type  2   force =     0.00000000    0.00000000    0.00000000
     atom   13 type  1   force =     0.00000000    0.00000000    0.00000000
     atom   14 type  1   force =     0.00000000    0.00000000    0.00000000
     atom   15 type  2   force =     0.00000000    0.00000000    0.00000000
     atom   16 type  2   force =     0.00000000    0.00000000    0.00000000
     atom   17 type  2   force =     0.00000000    0.00000000    0.00000000
     atom   18 type  2   force =     0.00000000    0.00000000    0.00000000
     atom   19 type  1   force =     0.00000000    0.00000000    0.00000000
     atom   20 type  1   force =     0.00000000    0.00000000    0.00000000
     atom   21 type  2   force =     0.00000000    0.00000000    0.00000000
     atom   22 type  2   force =     0.00000000    0.00000000    0.00000000
     atom   23 type  2   force =     0.00000000    0.00000000    0.00000000
     atom   24 type  2   force =     0.00000000    0.00000000    0.00000000
     atom   25 type  1   force =     0.00000000    0.00000000    0.00000000
     atom   26 type  1   force =     0.00000000    0.00000000    0.00000000
     atom   27 type  2   force =     0.00000000    0.00000000    0.00000000
     atom   28 type  2   force =     0.00000000    0.00000000    0.00000000
     atom   29 type  2   force =     0.00000000    0.00000000    0.00000000
     atom   30 type  2   force =     0.00000000    0.00000000    0.00000000
     atom   31 type  1   force =     0.00000000    0.00000000    0.00000000
     atom   32 type  1   force =     0.00000000    0.00000000    0.00000000
     atom   33 type  2   force =     0.00000000    0.00000000    0.00000000
     atom   34 type  2   force =     0.00000000    0.00000000    0.00000000
     atom   35 type  2   force =     0.00000000    0.00000000    0.00000000
     atom   36 type  2   force =     0.00000000    0.00000000    0.00000000
     atom   37 type  1   force =     0.00000000    0.00000000    0.00000000
     atom   38 type  1   force =     0.00000000    0.00000000    0.00000000
     atom   39 type  2   force =     0.00000000    0.00000000    0.00000000
     atom   40 type  2   force =     0.00000000    0.00000000    0.00000000
     atom   41 type  2   force =     0.00000000    0.00000000    0.00000000
     atom   42 type  2   force =     0.00000000    0.00000000    0.00000000
     atom   43 type  1   force =     0.00000000    0.00000000    0.00000000
     atom   44 type  1   force =     0.00000000    0.00000000    0.00000000
     atom   45 type  2   force =     0.00000000    0.00000000    0.00000000
     atom   46 type  2   force =     0.00000000    0.00000000    0.00000000
     atom   47 type  2   force =     0.00000000    0.00000000    0.00000000
     atom   48 type  2   force =     0.00000000    0.00000000    0.00000000
     atom   49 type  1   force =     0.00000000    0.00000000    0.00000000
     atom   50 type  1   force =     0.00000000    0.00000000    0.00000000
     atom   51 type  2   force =     0.00000000    0.00000000    0.00000000
     atom   52 type  2   force =     0.00000000    0.00000000    0.00000000
     atom   53 type  2   force =     0.00000000    0.00000000    0.00000000
     atom   54 type  2   force =     0.00000000    0.00000000    0.00000000
     atom   55 type  1   force =     0.00000000    0.00000000    0.00000000
     atom   56 type  1   force =     0.00000000    0.00000000    0.00000000
     atom   57 type  2   force =     0.00000000    0.00000000    0.00000000
     atom   58 type  2   force =     0.00000000    0.00000000    0.00000000
     atom   59 type  2   force =     0.00000000    0.00000000    0.00000000
     atom   60 type  2   force =     0.00000000    0.00000000    0.00000000
     atom   61 type  1   force =     0.00000000    0.00000000    0.00000000
     atom   62 type  1   force =     0.00000000    0.00000000    0.00000000
     atom   63 type  2   force =     0.00000000    0.00000000    0.00000000
     atom   64 type  2   force =     0.00000000    0.00000000    0.00000000
     atom   65 type  2   force =     0.00000000    0.00000000    0.00000000
     atom   66 type  2   force =     0.00000000    0.00000000    0.00000000
     atom   67 type  1   force =     0.00000000    0.00000000    0.00000000
     atom   68 type  1   force =     0.00000000    0.00000000    0.00000000
     atom   69 type  2   force =     0.00000000    0.00000000    0.00000000
     atom   70 type  2   force =     0.00000000    0.00000000    0.00000000
     atom   71 type  2   force =     0.00000000    0.00000000    0.00000000
     atom   72 type  2   force =     0.00000000    0.00000000    0.00000000
     atom   73 type  1   force =     0.00000000    0.00000000    0.00000000
     atom   74 type  1   force =     0.00000000    0.00000000    0.00000000
     atom   75 type  2   force =     0.00000000    0.00000000    0.00000000
     atom   76 type  2   force =     0.00000000    0.00000000    0.00000000
     atom   77 type  2   force =     0.00000000    0.00000000    0.00000000
     atom   78 type  2   force =     0.00000000    0.00000000    0.00000000
     atom   79 type  1   force =     0.00000000    0.00000000    0.00000000
     atom   80 type  1   force =     0.00000000    0.00000000    0.00000000
     atom   81 type  2   force =     0.00000000    0.00000000    0.00000000
     atom   82 type  2   force =     0.00000000    0.00000000    0.00000000
     atom   83 type  2   force =     0.00000000    0.00000000    0.00000000
     atom   84 type  2   force =     0.00000000    0.00000000    0.00000000
     atom   85 type  1   force =     0.00000000    0.00000000    0.00000000
     atom   86 type  2   force =     0.00000000    0.00000000    0.00000000
     atom   87 type  2   force =     0.00000000    0.00000000    0.00000000
     atom   88 type  2   force =     0.00000000    0.00000000    0.00000000
     atom   89 type  2   force =     0.00000000    0.00000000    0.00000000
     atom   90 type  1   force =     0.00000000    0.00000000    0.00000000
     atom   91 type  1   force =     0.00000000    0.00000000    0.00000000
     atom   92 type  2   force =     0.00000000    0.00000000    0.00000000
     atom   93 type  2   force =     0.00000000    0.00000000    0.00000000
     atom   94 type  2   force =     0.00000000    0.00000000    0.00000000
     atom   95 type  2   force =     0.00000000    0.00000000    0.00000000
     atom   96 type  3   force =     0.00000000    0.00000000    0.00000000
     The SCF correction term to forces
     atom    1 type  1   force =     0.00000156   -0.00000285   -0.00003877
     atom    2 type  1   force =    -0.00000243   -0.00002122   -0.00003884
     atom    3 type  2   force =    -0.00000157   -0.00000855   -0.00001298
     atom    4 type  2   force =    -0.00000018   -0.00000768   -0.00001310
     atom    5 type  2   force =     0.00000209   -0.00000246   -0.00001490
     atom    6 type  2   force =    -0.00000161   -0.00000515   -0.00001583
     atom    7 type  1   force =     0.00000220   -0.00000444   -0.00002538
     atom    8 type  1   force =    -0.00001479   -0.00002377   -0.00002016
     atom    9 type  2   force =     0.00000298   -0.00000420   -0.00000785
     atom   10 type  2   force =    -0.00000456   -0.00000658   -0.00000842
     atom   11 type  2   force =     0.00001101    0.00000106    0.00000099
     atom   12 type  2   force =    -0.00000259   -0.00000696    0.00000064
     atom   13 type  1   force =     0.00000757   -0.00000642    0.00003026
     atom   14 type  1   force =    -0.00001426   -0.00002938    0.00006352
     atom   15 type  2   force =     0.00000022   -0.00000950    0.00001026
     atom   16 type  2   force =     0.00000609    0.00000174    0.00000924
     atom   17 type  2   force =     0.00000936    0.00000053    0.00001672
     atom   18 type  2   force =    -0.00000414   -0.00000900    0.00001715
     atom   19 type  1   force =     0.00000688   -0.00000621    0.00003423
     atom   20 type  1   force =    -0.00000413   -0.00002182   -0.00000626
     atom   21 type  2   force =     0.00000181   -0.00000788    0.00001063
     atom   22 type  2   force =     0.00000000    0.00000292    0.00001287
     atom   23 type  2   force =     0.00000339   -0.00000128   -0.00000266
     atom   24 type  2   force =    -0.00000305   -0.00000681   -0.00000176
     atom   25 type  1   force =     0.00000214    0.00000463   -0.00003666
     atom   26 type  1   force =    -0.00000095    0.00002567   -0.00003907
     atom   27 type  2   force =    -0.00000451    0.00000655   -0.00001300
     atom   28 type  2   force =     0.00000247    0.00001063   -0.00001297
     atom   29 type  2   force =     0.00000310    0.00000288   -0.00001678
     atom   30 type  2   force =    -0.00000305    0.00000267   -0.00001152
     atom   31 type  1   force =     0.00001227    0.00000392   -0.00003406
     atom   32 type  1   force =     0.00000103    0.00001917    0.00000643
     atom   33 type  2   force =    -0.00000026    0.00000742   -0.00000733
     atom   34 type  2   force =     0.00000080    0.00000746   -0.00000633
     atom   35 type  2   force =     0.00000506    0.00000074    0.00000246
     atom   36 type  2   force =     0.00000004    0.00000044    0.00000746
     atom   37 type  1   force =     0.00002461    0.00000541    0.00002884
     atom   38 type  1   force =    -0.00001375    0.00004223    0.00003496
     atom   39 type  2   force =     0.00000293    0.00000720    0.00000882
     atom   40 type  2   force =     0.00000130    0.00000409    0.00000807
     atom   41 type  2   force =     0.00000460    0.00000353    0.00001638
     atom   42 type  2   force =     0.00000382   -0.00000871    0.00001294
     atom   43 type  1   force =     0.00001151    0.00000719    0.00004525
     atom   44 type  1   force =    -0.00000417    0.00002946   -0.00000601
     atom   45 type  2   force =    -0.00000554    0.00000680    0.00001194
     atom   46 type  2   force =     0.00000285    0.00001052    0.00001154
     atom   47 type  2   force =     0.00000280    0.00000418   -0.00000232
     atom   48 type  2   force =     0.00000350   -0.00000276   -0.00001387
     atom   49 type  1   force =    -0.00000160   -0.00000383   -0.00003785
     atom   50 type  1   force =     0.00000216   -0.00003031   -0.00004595
     atom   51 type  2   force =    -0.00000378   -0.00001203   -0.00001233
     atom   52 type  2   force =     0.00000622   -0.00000600   -0.00001233
     atom   53 type  2   force =     0.00000076   -0.00000010   -0.00001523
     atom   54 type  2   force =    -0.00000239   -0.00000556   -0.00001704
     atom   55 type  1   force =    -0.00000235   -0.00000510   -0.00002453
     atom   56 type  1   force =     0.00001074   -0.00003854   -0.00000017
     atom   57 type  2   force =    -0.00000390   -0.00001261   -0.00000996
     atom   58 type  2   force =     0.00000689   -0.00000797   -0.00001074
     atom   59 type  2   force =    -0.00000601    0.00000527    0.00000502
     atom   60 type  2   force =    -0.00000300   -0.00000589    0.00000089
     atom   61 type  1   force =    -0.00000773   -0.00000944    0.00003272
     atom   62 type  1   force =     0.00001635   -0.00005050    0.00004000
     atom   63 type  2   force =    -0.00000791   -0.00001053    0.00000768
     atom   64 type  2   force =     0.00000832   -0.00000800    0.00000809
     atom   65 type  2   force =    -0.00001079    0.00001238    0.00001920
     atom   66 type  2   force =    -0.00000052   -0.00001018    0.00001665
     atom   67 type  1   force =    -0.00000623   -0.00000723    0.00002912
     atom   68 type  1   force =     0.00000388   -0.00003193    0.00000291
     atom   69 type  2   force =    -0.00000794   -0.00001358    0.00001470
     atom   70 type  2   force =     0.00001177   -0.00000559    0.00001560
     atom   71 type  2   force =    -0.00000630    0.00000564   -0.00001090
     atom   72 type  2   force =    -0.00000137   -0.00000763   -0.00000072
     atom   73 type  1   force =    -0.00000295    0.00000340   -0.00003819
     atom   74 type  1   force =     0.00000162    0.00002223   -0.00003920
     atom   75 type  2   force =    -0.00000138    0.00000894   -0.00001339
     atom   76 type  2   force =     0.00000272    0.00000751   -0.00001346
     atom   77 type  2   force =     0.00000099    0.00000312   -0.00001565
     atom   78 type  2   force =     0.00000006    0.00000570   -0.00001738
     atom   79 type  1   force =    -0.00001854    0.00001300   -0.00001962
     atom   80 type  1   force =     0.00000845    0.00004009   -0.00002407
     atom   81 type  2   force =    -0.00000152    0.00000975   -0.00000804
     atom   82 type  2   force =    -0.00000105    0.00000425   -0.00000757
     atom   83 type  2   force =     0.00000100    0.00000290   -0.00000002
     atom   84 type  2   force =    -0.00000094    0.00000589   -0.00000245
     atom   85 type  1   force =     0.00001359    0.00003897    0.00006568
     atom   86 type  2   force =    -0.00001760    0.00000368    0.00000759
     atom   87 type  2   force =     0.00000528    0.00000946    0.00000993
     atom   88 type  2   force =     0.00000026    0.00000452    0.00001731
     atom   89 type  2   force =     0.00000048    0.00000664    0.00001976
     atom   90 type  1   force =    -0.00001573    0.00000707    0.00005801
     atom   91 type  1   force =     0.00000456    0.00002340   -0.00000563
     atom   92 type  2   force =    -0.00000576    0.00000017    0.00001436
     atom   93 type  2   force =     0.00000275    0.00000626    0.00001132
     atom   94 type  2   force =     0.00000154    0.00000374   -0.00000124
     atom   95 type  2   force =    -0.00000069    0.00000540   -0.00000123
     atom   96 type  3   force =    -0.00000144    0.00000118    0.00000024

     Total force =     0.025150     Total SCF correction =     0.000266

     Writing all to output data dir /tmp/marc_spin_diag/marc_endB_m167/tmp/marc_endB_m167.save/ :
     XML data file, charge density, pseudopotentials, collected wavefunctions
 
     init_run     :     29.36s CPU     34.52s WALL (       1 calls)
     electrons    :   1092.41s CPU   1140.39s WALL (       1 calls)
     forces       :      6.84s CPU      7.12s WALL (       1 calls)

     Called by init_run:
     wfcinit      :     26.64s CPU     30.68s WALL (       1 calls)
     wfcinit:atom :      5.60s CPU      5.61s WALL (      16 calls)
     wfcinit:wfcr :     14.85s CPU     14.96s WALL (      16 calls)
     potinit      :      0.12s CPU      0.19s WALL (       1 calls)
     hinit0       :      2.32s CPU      1.96s WALL (       1 calls)

     Called by electrons:
     c_bands      :    935.64s CPU    959.45s WALL (      24 calls)
     sum_band     :    143.48s CPU    164.19s WALL (      24 calls)
     v_of_rho     :      1.75s CPU      1.78s WALL (      25 calls)
     v_h          :      0.39s CPU      0.31s WALL (      25 calls)
     v_xc         :      1.38s CPU      1.49s WALL (      26 calls)
     mix_rho      :     10.85s CPU     13.90s WALL (      24 calls)

     Called by c_bands:
     init_us_2    :     58.76s CPU     58.80s WALL (     800 calls)
     cegterg      :    750.83s CPU    751.03s WALL (     384 calls)

     Called by sum_band:
     sum_band:wei :      0.28s CPU      0.29s WALL (      24 calls)
     sum_band:loo :    142.52s CPU    163.04s WALL (      24 calls)
     sum_band:buf :     34.81s CPU     55.46s WALL (     384 calls)
     sum_band:ini :     23.06s CPU     23.07s WALL (     384 calls)

     Called by *egterg:
     cdiaghg      :     66.90s CPU     67.42s WALL (    1786 calls)
                                       66.81s GPU  (    1786 calls)
     cegterg:over :     86.93s CPU     86.95s WALL (    1402 calls)
     cegterg:upda :    100.87s CPU    100.88s WALL (    1402 calls)
     cegterg:last :     32.16s CPU     32.17s WALL (     731 calls)
     h_psi        :    419.24s CPU    419.14s WALL (    1802 calls)
     g_psi        :      1.47s CPU      1.47s WALL (    1402 calls)

     Called by h_psi:
     h_psi:calbec :      0.14s CPU      0.18s WALL (    1802 calls)
     vloc_psi     :    276.45s CPU    276.79s WALL (    1802 calls)
                                      276.21s GPU  (    1802 calls)
     add_vuspsi   :    140.30s CPU    140.38s WALL (    1802 calls)

     General routines
     calbec       :      0.13s CPU      0.18s WALL (    1866 calls)
     fft          :      0.01s CPU      0.25s WALL (     490 calls)
                                        0.05s GPU  (     490 calls)
     ffts         :      0.01s CPU      0.25s WALL (     677 calls)
                                        0.07s GPU  (     677 calls)
     fftw         :      1.03s CPU    173.99s WALL (   74308 calls)
                                      150.96s GPU  (   74308 calls)
 
     Parallel routines
 
     PWSCF        :  18m50.71s CPU  19m51.85s WALL

 
   This run was terminated on:   2:58:59  29May2026            

=------------------------------------------------------------------------------=
   JOB DONE.
=------------------------------------------------------------------------------=
Warning: ieee_invalid is signaling
Warning: ieee_divide_by_zero is signaling
Warning: ieee_inexact is signaling
FORTRAN STOP
