
     Program PWSCF v.7.5 starts on 29May2026 at 15:17:10 

     This program is part of the open-source Quantum ESPRESSO suite
     for quantum simulation of materials; please cite
         "P. Giannozzi et al., J. Phys.:Condens. Matter 21 395502 (2009);
         "P. Giannozzi et al., J. Phys.:Condens. Matter 29 465901 (2017);
         "P. Giannozzi et al., J. Chem. Phys. 152 154105 (2020);
          URL http://www.quantum-espresso.org", 
     in publications or presentations arising from this work. More details at
     http://www.quantum-espresso.org/quote

     Parallel version (MPI & OpenMP), running on       8 processor cores
     Number of MPI processes:                 1
     Threads/MPI process:                     8

     MPI processes distributed on     1 nodes
     279205 MiB available memory on the printing compute node when the environment starts
 
     Reading input from espresso.pwi
Warning: card &CELL ignored
Warning: card &FCP ignored
Warning: card &RISM ignored

     Current dimensions of program PWSCF are:
     Max number of different atomic species (ntypx) = 10
     Max number of k-points (npk) =  40000
     Max angular momentum in pseudopotentials (lmaxx) =  4
 
     Subspace diagonalization in iterative solution of the eigenvalue problem:
     a serial algorithm will be used

 
     G-vector sticks info
     --------------------
     sticks:   dense  smooth     PW     G-vecs:    dense   smooth      PW
     Sum        6591    6591   1755               553421   553421   76211
 
     Using Slab Decomposition
 


     bravais-lattice index     =            0
     lattice parameter (alat)  =      16.7921  a.u.
     unit-cell volume          =    8814.7061 (a.u.)^3
     number of atoms/cell      =           96
     number of atomic types    =            3
     number of electrons       =       881.00
     number of Kohn-Sham states=          529
     kinetic-energy cutoff     =      60.0000  Ry
     charge density cutoff     =     240.0000  Ry
     scf convergence threshold =      1.0E-07
     mixing beta               =       0.2000
     number of iterations used =           12  local-TF  mixing
     Exchange-correlation= PBE
                           (   1   4   3   4   0   0   0)

     GPU acceleration is ACTIVE.  1 visible GPUs per MPI rank


     GPU used by master process:

        Device Number: 0
        Device name: NVIDIA A100-SXM4-40GB
        Compute capability : 80
        Ratio of single to double precision performance  : 2
        Memory Clock Rate (KHz): 1215000
        Memory Bus Width (bits): 5120
        Peak Memory Bandwidth (GB/s): ******

     celldm(1)=  16.792106  celldm(2)=   0.000000  celldm(3)=   0.000000
     celldm(4)=   0.000000  celldm(5)=   0.000000  celldm(6)=   0.000000

     crystal axes: (cart. coord. in units of alat)
               a(1) = (   1.000000   0.000000   0.000000 )  
               a(2) = (   0.000000   1.221022   0.000000 )  
               a(3) = (   0.000000   0.000000   1.524646 )  

     reciprocal axes: (cart. coord. in units 2 pi/alat)
               b(1) = (  1.000000  0.000000  0.000000 )  
               b(2) = (  0.000000  0.818986  0.000000 )  
               b(3) = (  0.000000  0.000000  0.655890 )  


     PseudoPot. # 1 for Fe read from file:
     /opt/pp/oncv_pbe/Fe.upf
     MD5 check sum: a5f07f5dca5be6cacb81ceb54992e4ae
     Pseudo is Norm-conserving + core correction, Zval = 16.0
     Generated using ONCVPSP code by D. R. Hamann
     Using radial grid of 1426 points,  6 beta functions with: 
                l(1) =   0
                l(2) =   0
                l(3) =   1
                l(4) =   1
                l(5) =   2
                l(6) =   2

     PseudoPot. # 2 for S  read from file:
     /opt/pp/oncv_pbe/S.upf
     MD5 check sum: 6027e7704d67ae28863b2247926ce6f3
     Pseudo is Norm-conserving + core correction, Zval =  6.0
     Generated using ONCVPSP code by D. R. Hamann
     Using radial grid of 1146 points,  6 beta functions with: 
                l(1) =   0
                l(2) =   0
                l(3) =   1
                l(4) =   1
                l(5) =   2
                l(6) =   2

     PseudoPot. # 3 for H  read from file:
     /opt/pp/oncv_pbe/H.upf
     MD5 check sum: e96aa7e3e4a958db16958554ea960e2a
     Pseudo is Norm-conserving, Zval =  1.0
     Generated using ONCVPSP code by D. R. Hamann
     Using radial grid of 1166 points,  3 beta functions with: 
                l(1) =   0
                l(2) =   0
                l(3) =   1

     atomic species   valence    mass     pseudopotential
     Fe               16.00    55.84500     Fe( 1.00)
     S                 6.00    32.06000     S ( 1.00)
     H                 1.00     1.00800     H ( 1.00)

     Starting magnetic structure 
     atomic species   magnetization
     Fe              0.065
     S               0.000
     H               0.000

     No symmetry found


                                    s                        frac. trans.

      isym =  1     identity                                     

 cryst.   s( 1) = (     1          0          0      )
                  (     0          1          0      )
                  (     0          0          1      )

 cart.    s( 1) = (  1.0000000  0.0000000  0.0000000 )
                  (  0.0000000  1.0000000  0.0000000 )
                  (  0.0000000  0.0000000  1.0000000 )


   Cartesian axes

     site n.     atom                  positions (alat units)
         1        Fe     tau(   1) = (   0.0003052   0.0005542  -0.0000004  )
         2        Fe     tau(   2) = (   0.2510044   0.3058486   0.1901125  )
         3        S      tau(   3) = (   0.1048639   0.2292965  -0.0002009  )
         4        S      tau(   4) = (   0.3967128   0.3821025  -0.0000734  )
         5        S      tau(   5) = (   0.1469938   0.5340794   0.1903531  )
         6        S      tau(   6) = (   0.3544574   0.0770750   0.1902342  )
         7        Fe     tau(   7) = (   0.0004507   0.0003064   0.3808965  )
         8        Fe     tau(   8) = (   0.2484345   0.3043745   0.5698612  )
         9        S      tau(   9) = (   0.1035761   0.2285666   0.3790143  )
        10        S      tau(  10) = (   0.3968085   0.3811133   0.3814611  )
        11        S      tau(  11) = (   0.1460631   0.5370844   0.5694664  )
        12        S      tau(  12) = (   0.3537162   0.0761702   0.5707732  )
        13        Fe     tau(  13) = (  -0.0000953   0.0002983   0.7624334  )
        14        Fe     tau(  14) = (   0.2491328   0.3063551   0.9538735  )
        15        S      tau(  15) = (   0.1010735   0.2284315   0.7622601  )
        16        S      tau(  16) = (   0.3862078   0.3702143   0.7599375  )
        17        S      tau(  17) = (   0.1465969   0.5382954   0.9550766  )
        18        S      tau(  18) = (   0.3540810   0.0774053   0.9534840  )
        19        Fe     tau(  19) = (   0.0006508   0.0010656   1.1436508  )
        20        Fe     tau(  20) = (   0.2510480   0.3062346   1.3339838  )
        21        S      tau(  21) = (   0.1042021   0.2292792   1.1447501  )
        22        S      tau(  22) = (   0.3969868   0.3821451   1.1427476  )
        23        S      tau(  23) = (   0.1469803   0.5343964   1.3342353  )
        24        S      tau(  24) = (   0.3545296   0.0775096   1.3344193  )
        25        Fe     tau(  25) = (   0.0003218   0.6112477   0.0000602  )
        26        Fe     tau(  26) = (   0.2504191   0.9164356   0.1906885  )
        27        S      tau(  27) = (   0.1041790   0.8399215   0.0001913  )
        28        S      tau(  28) = (   0.3964337   0.9930796   0.0002325  )
        29        S      tau(  29) = (   0.1465636   1.1450401   0.1900365  )
        30        S      tau(  30) = (   0.3538379   0.6878473   0.1903492  )
        31        Fe     tau(  31) = (   0.0002867   0.6112738   0.3786504  )
        32        Fe     tau(  32) = (   0.2484634   0.9167862   0.5704422  )
        33        S      tau(  33) = (   0.1022913   0.8409135   0.3800634  )
        34        S      tau(  34) = (   0.3956845   0.9931117   0.3808618  )
        35        S      tau(  35) = (   0.1462354   1.1447733   0.5719546  )
        36        S      tau(  36) = (   0.3455177   0.6891861   0.5657619  )
        37        Fe     tau(  37) = (   0.0002541   0.6114590   0.7623690  )
        38        Fe     tau(  38) = (   0.2482629   0.9176555   0.9551040  )
        39        S      tau(  39) = (   0.1026628   0.8408251   0.7626344  )
        40        S      tau(  40) = (   0.4000458   0.9917538   0.7626865  )
        41        S      tau(  41) = (   0.1462561   1.1456197   0.9528387  )
        42        S      tau(  42) = (   0.3452595   0.6907648   0.9599033  )
        43        Fe     tau(  43) = (   0.0002235   0.6117811   1.1461046  )
        44        Fe     tau(  44) = (   0.2503946   0.9168271   1.3344339  )
        45        S      tau(  45) = (   0.1020142   0.8416163   1.1451461  )
        46        S      tau(  46) = (   0.3956069   0.9939641   1.1443191  )
        47        S      tau(  47) = (   0.1465913   1.1454658   1.3346832  )
        48        S      tau(  48) = (   0.3538463   0.6882614   1.3347243  )
        49        Fe     tau(  49) = (   0.5004775   0.0006047   0.0000266  )
        50        Fe     tau(  50) = (   0.7503669   0.3055766   0.1905699  )
        51        S      tau(  51) = (   0.6045372   0.2292853  -0.0000918  )
        52        S      tau(  52) = (   0.8965172   0.3821948  -0.0000324  )
        53        S      tau(  53) = (   0.6468847   0.5341238   0.1901382  )
        54        S      tau(  54) = (   0.8543192   0.0767696   0.1901314  )
        55        Fe     tau(  55) = (   0.5003056   0.0004384   0.3808758  )
        56        Fe     tau(  56) = (   0.7530771   0.3050903   0.5700078  )
        57        S      tau(  57) = (   0.6048763   0.2284400   0.3807073  )
        58        S      tau(  58) = (   0.8990880   0.3813815   0.3788038  )
        59        S      tau(  59) = (   0.6566468   0.5326658   0.5640126  )
        60        S      tau(  60) = (   0.8550415   0.0761249   0.5709941  )
        61        Fe     tau(  61) = (   0.5012397   0.0040162   0.7622897  )
        62        Fe     tau(  62) = (   0.7527629   0.3056788   0.9542844  )
        63        S      tau(  63) = (   0.6103410   0.2294251   0.7617577  )
        64        S      tau(  64) = (   0.8985223   0.3826034   0.7622681  )
        65        S      tau(  65) = (   0.6560834   0.5332688   0.9597826  )
        66        S      tau(  66) = (   0.8548985   0.0766193   0.9535528  )
        67        Fe     tau(  67) = (   0.5003241   0.0011832   1.1437919  )
        68        Fe     tau(  68) = (   0.7504738   0.3059137   1.3338370  )
        69        S      tau(  69) = (   0.6049107   0.2291122   1.1437142  )
        70        S      tau(  70) = (   0.8991124   0.3820018   1.1453745  )
        71        S      tau(  71) = (   0.6469362   0.5344661   1.3345319  )
        72        S      tau(  72) = (   0.8544583   0.0771884   1.3344885  )
        73        Fe     tau(  73) = (   0.5005587   0.6112389   0.0000686  )
        74        Fe     tau(  74) = (   0.7496739   0.9162181   0.1911635  )
        75        S      tau(  75) = (   0.6042293   0.8403310   0.0001457  )
        76        S      tau(  76) = (   0.8958966   0.9929942   0.0001504  )
        77        S      tau(  77) = (   0.6463558   1.1449373   0.1905767  )
        78        S      tau(  78) = (   0.8535905   0.6882143   0.1906442  )
        79        Fe     tau(  79) = (   0.5003971   0.6106879   0.3856505  )
        80        Fe     tau(  80) = (   0.7492407   0.9175417   0.5714110  )
        81        S      tau(  81) = (   0.6027973   0.8407085   0.3823590  )
        82        S      tau(  82) = (   0.8970309   0.9934201   0.3806540  )
        83        S      tau(  83) = (   0.6467561   1.1460840   0.5710383  )
        84        S      tau(  84) = (   0.8527367   0.6856296   0.5705753  )
        85        Fe     tau(  85) = (   0.7492423   0.9179696   0.9536202  )
        86        S      tau(  86) = (   0.6042362   0.8462037   0.7627114  )
        87        S      tau(  87) = (   0.8963007   0.9926080   0.7624807  )
        88        S      tau(  88) = (   0.6467733   1.1465620   0.9537390  )
        89        S      tau(  89) = (   0.8525940   0.6857909   0.9543324  )
        90        Fe     tau(  90) = (   0.5002215   0.6115008   1.1389581  )
        91        Fe     tau(  91) = (   0.7496208   0.9165602   1.3338144  )
        92        S      tau(  92) = (   0.6027483   0.8413812   1.1425578  )
        93        S      tau(  93) = (   0.8970299   0.9940112   1.1443733  )
        94        S      tau(  94) = (   0.6463377   1.1453017   1.3341346  )
        95        S      tau(  95) = (   0.8535249   0.6885095   1.3342187  )
        96        H      tau(  96) = (   0.4232428   0.5227388   0.7447724  )

   Crystallographic axes

     site n.     atom                  positions (cryst. coord.)
         1        Fe     tau(   1) = (  0.0003052  0.0004538 -0.0000003  )
         2        Fe     tau(   2) = (  0.2510044  0.2504858  0.1246929  )
         3        S      tau(   3) = (  0.1048639  0.1877907 -0.0001318  )
         4        S      tau(   4) = (  0.3967128  0.3129367 -0.0000481  )
         5        S      tau(   5) = (  0.1469938  0.4374036  0.1248507  )
         6        S      tau(   6) = (  0.3544574  0.0631234  0.1247727  )
         7        Fe     tau(   7) = (  0.0004507  0.0002509  0.2498263  )
         8        Fe     tau(   8) = (  0.2484345  0.2492785  0.3737664  )
         9        S      tau(   9) = (  0.1035761  0.1871928  0.2485917  )
        10        S      tau(  10) = (  0.3968085  0.3121265  0.2501966  )
        11        S      tau(  11) = (  0.1460631  0.4398647  0.3735074  )
        12        S      tau(  12) = (  0.3537162  0.0623824  0.3743646  )
        13        Fe     tau(  13) = ( -0.0000953  0.0002443  0.5000726  )
        14        Fe     tau(  14) = (  0.2491328  0.2509006  0.6256363  )
        15        S      tau(  15) = (  0.1010735  0.1870823  0.4999589  )
        16        S      tau(  16) = (  0.3862078  0.3032004  0.4984355  )
        17        S      tau(  17) = (  0.1465969  0.4408565  0.6264253  )
        18        S      tau(  18) = (  0.3540810  0.0633939  0.6253808  )
        19        Fe     tau(  19) = (  0.0006508  0.0008727  0.7501093  )
        20        Fe     tau(  20) = (  0.2510480  0.2508019  0.8749469  )
        21        S      tau(  21) = (  0.1042021  0.1877765  0.7508303  )
        22        S      tau(  22) = (  0.3969868  0.3129715  0.7495169  )
        23        S      tau(  23) = (  0.1469803  0.4376632  0.8751118  )
        24        S      tau(  24) = (  0.3545296  0.0634793  0.8752325  )
        25        Fe     tau(  25) = (  0.0003218  0.5006034  0.0000395  )
        26        Fe     tau(  26) = (  0.2504191  0.7505481  0.1250707  )
        27        S      tau(  27) = (  0.1041790  0.6878841  0.0001254  )
        28        S      tau(  28) = (  0.3964337  0.8133184  0.0001525  )
        29        S      tau(  29) = (  0.1465636  0.9377720  0.1246431  )
        30        S      tau(  30) = (  0.3538379  0.5633374  0.1248482  )
        31        Fe     tau(  31) = (  0.0002867  0.5006248  0.2483531  )
        32        Fe     tau(  32) = (  0.2484634  0.7508352  0.3741474  )
        33        S      tau(  33) = (  0.1022913  0.6886965  0.2492798  )
        34        S      tau(  34) = (  0.3956845  0.8133448  0.2498035  )
        35        S      tau(  35) = (  0.1462354  0.9375535  0.3751394  )
        36        S      tau(  36) = (  0.3455177  0.5644339  0.3710777  )
        37        Fe     tau(  37) = (  0.0002541  0.5007765  0.5000303  )
        38        Fe     tau(  38) = (  0.2482629  0.7515472  0.6264433  )
        39        S      tau(  39) = (  0.1026628  0.6886241  0.5002044  )
        40        S      tau(  40) = (  0.4000458  0.8122326  0.5002386  )
        41        S      tau(  41) = (  0.1462561  0.9382467  0.6249575  )
        42        S      tau(  42) = (  0.3452595  0.5657268  0.6295912  )
        43        Fe     tau(  43) = (  0.0002235  0.5010402  0.7517188  )
        44        Fe     tau(  44) = (  0.2503946  0.7508687  0.8752421  )
        45        S      tau(  45) = (  0.1020142  0.6892721  0.7510900  )
        46        S      tau(  46) = (  0.3956069  0.8140429  0.7505477  )
        47        S      tau(  47) = (  0.1465913  0.9381206  0.8754056  )
        48        S      tau(  48) = (  0.3538463  0.5636765  0.8754325  )
        49        Fe     tau(  49) = (  0.5004775  0.0004953  0.0000175  )
        50        Fe     tau(  50) = (  0.7503669  0.2502630  0.1249929  )
        51        S      tau(  51) = (  0.6045372  0.1877815 -0.0000602  )
        52        S      tau(  52) = (  0.8965172  0.3130123 -0.0000212  )
        53        S      tau(  53) = (  0.6468847  0.4374400  0.1247098  )
        54        S      tau(  54) = (  0.8543192  0.0628732  0.1247053  )
        55        Fe     tau(  55) = (  0.5003056  0.0003590  0.2498127  )
        56        Fe     tau(  56) = (  0.7530771  0.2498647  0.3738625  )
        57        S      tau(  57) = (  0.6048763  0.1870892  0.2497022  )
        58        S      tau(  58) = (  0.8990880  0.3123461  0.2484537  )
        59        S      tau(  59) = (  0.6566468  0.4362459  0.3699303  )
        60        S      tau(  60) = (  0.8550415  0.0623453  0.3745094  )
        61        Fe     tau(  61) = (  0.5012397  0.0032892  0.4999783  )
        62        Fe     tau(  62) = (  0.7527629  0.2503467  0.6259057  )
        63        S      tau(  63) = (  0.6103410  0.1878960  0.4996294  )
        64        S      tau(  64) = (  0.8985223  0.3133469  0.4999642  )
        65        S      tau(  65) = (  0.6560834  0.4367398  0.6295119  )
        66        S      tau(  66) = (  0.8548985  0.0627502  0.6254259  )
        67        Fe     tau(  67) = (  0.5003241  0.0009691  0.7502019  )
        68        Fe     tau(  68) = (  0.7504738  0.2505391  0.8748506  )
        69        S      tau(  69) = (  0.6049107  0.1876397  0.7501509  )
        70        S      tau(  70) = (  0.8991124  0.3128542  0.7512399  )
        71        S      tau(  71) = (  0.6469362  0.4377204  0.8753064  )
        72        S      tau(  72) = (  0.8544583  0.0632162  0.8752779  )
        73        Fe     tau(  73) = (  0.5005587  0.5005962  0.0000450  )
        74        Fe     tau(  74) = (  0.7496739  0.7503700  0.1253823  )
        75        S      tau(  75) = (  0.6042293  0.6882195  0.0000956  )
        76        S      tau(  76) = (  0.8958966  0.8132485  0.0000987  )
        77        S      tau(  77) = (  0.6463558  0.9376878  0.1249974  )
        78        S      tau(  78) = (  0.8535905  0.5636380  0.1250417  )
        79        Fe     tau(  79) = (  0.5003971  0.5001449  0.2529444  )
        80        Fe     tau(  80) = (  0.7492407  0.7514540  0.3747829  )
        81        S      tau(  81) = (  0.6027973  0.6885286  0.2507855  )
        82        S      tau(  82) = (  0.8970309  0.8135973  0.2496672  )
        83        S      tau(  83) = (  0.6467561  0.9386270  0.3745384  )
        84        S      tau(  84) = (  0.8527367  0.5615211  0.3742347  )
        85        Fe     tau(  85) = (  0.7492423  0.7518045  0.6254701  )
        86        S      tau(  86) = (  0.6042362  0.6930291  0.5002549  )
        87        S      tau(  87) = (  0.8963007  0.8129322  0.5001036  )
        88        S      tau(  88) = (  0.6467733  0.9390185  0.6255481  )
        89        S      tau(  89) = (  0.8525940  0.5616533  0.6259373  )
        90        Fe     tau(  90) = (  0.5002215  0.5008107  0.7470314  )
        91        Fe     tau(  91) = (  0.7496208  0.7506501  0.8748357  )
        92        S      tau(  92) = (  0.6027483  0.6890795  0.7493925  )
        93        S      tau(  93) = (  0.8970299  0.8140814  0.7505832  )
        94        S      tau(  94) = (  0.6463377  0.9379863  0.8750458  )
        95        S      tau(  95) = (  0.8535249  0.5638798  0.8751009  )
        96        H      tau(  96) = (  0.4232428  0.4281158  0.4884889  )

     number of k points=     8  Marzari-Vanderbilt smearing, width (Ry)=  0.0150
                       cart. coord. in units 2pi/alat
        k(    1) = (   0.0000000   0.0000000   0.0000000), wk =   0.0833333
        k(    2) = (   0.0000000   0.0000000   0.2186301), wk =   0.1666667
        k(    3) = (   0.0000000  -0.4094931   0.0000000), wk =   0.0833333
        k(    4) = (   0.0000000  -0.4094931   0.2186301), wk =   0.1666667
        k(    5) = (  -0.5000000   0.0000000   0.0000000), wk =   0.0833333
        k(    6) = (  -0.5000000   0.0000000   0.2186301), wk =   0.1666667
        k(    7) = (  -0.5000000  -0.4094931   0.0000000), wk =   0.0833333
        k(    8) = (  -0.5000000  -0.4094931   0.2186301), wk =   0.1666667

                       cryst. coord.
        k(    1) = (   0.0000000   0.0000000   0.0000000), wk =   0.0833333
        k(    2) = (   0.0000000   0.0000000   0.3333333), wk =   0.1666667
        k(    3) = (   0.0000000  -0.5000000   0.0000000), wk =   0.0833333
        k(    4) = (   0.0000000  -0.5000000   0.3333333), wk =   0.1666667
        k(    5) = (  -0.5000000   0.0000000   0.0000000), wk =   0.0833333
        k(    6) = (  -0.5000000   0.0000000   0.3333333), wk =   0.1666667
        k(    7) = (  -0.5000000  -0.5000000   0.0000000), wk =   0.0833333
        k(    8) = (  -0.5000000  -0.5000000   0.3333333), wk =   0.1666667

     Dense  grid:   553421 G-vectors     FFT dimensions: (  90, 108, 128)

     Dynamical RAM for                 wfc:     558.42 MB

     Dynamical RAM for     wfc (w. buffer):     558.42 MB

     Dynamical RAM for           str. fact:      25.33 MB

     Dynamical RAM for           local pot:       0.00 MB

     Dynamical RAM for          nlocal pot:    1810.39 MB

     Dynamical RAM for                qrad:       3.73 MB

     Dynamical RAM for          rho,v,vnew:     107.62 MB

     Dynamical RAM for               rhoin:      35.87 MB

     Dynamical RAM for           G-vectors:      35.89 MB

     Dynamical RAM for          h,s,v(r/c):      51.24 MB

     Dynamical RAM for          <psi|beta>:      13.84 MB

     Dynamical RAM for                 psi:    1116.84 MB

     Dynamical RAM for                hpsi:    1116.84 MB

     Dynamical RAM for      wfcinit/wfcrot:    1123.25 MB

     Estimated static dynamical RAM per process >       2.61 GB

     Estimated max dynamical RAM per process >       4.85 GB
     Generating pointlists ...
     new r_m :   0.1006 (alat units)  1.6888 (a.u.) for type    1
     new r_m :   0.0650 (alat units)  1.0923 (a.u.) for type    2
     new r_m :   0.0650 (alat units)  1.0923 (a.u.) for type    3

     Initial potential from superposition of free atoms

     starting charge     880.9860, renormalised to     881.0000
     Starting wfcs are  567 randomized atomic wfcs

     total cpu time spent up to now is       13.4 secs

     per-process dynamical memory:  1150.2 Mb

     Self-consistent Calculation
[tb_dev] Currently allocated     3.10E+01 Mbytes, locked:    0 /   3
[tb_pin] Currently allocated     0.00E+00 Mbytes, locked:    0 /   0

     iteration #  1     ecut=    60.00 Ry     beta= 0.20
     Davidson diagonalization with overlap

---- Real-time Memory Report at c_bands before calling an iterative solver
          3224 MiB given to the printing process from OS
          1157 MiB allocation reported by mallinfo(arena+hblkhd)
        276743 MiB available memory on the node where the printing process lives
     GPU memory used/free/total (MiB): 5716 / 34725 / 40442
------------------
     ethr =  1.00E-02,  avg # of iterations =  2.0

     total cpu time spent up to now is       37.1 secs

     total energy              =   -9183.18368700 Ry
     estimated scf accuracy    <      16.52832788 Ry

     total magnetization       =     1.90 Bohr mag/cell
     absolute magnetization    =    13.27 Bohr mag/cell
[tb_dev] Currently allocated     0.00E+00 Mbytes, locked:    0 /   0
[tb_pin] Currently allocated     0.00E+00 Mbytes, locked:    0 /   0

     iteration #  2     ecut=    60.00 Ry     beta= 0.20
     Davidson diagonalization with overlap

---- Real-time Memory Report at c_bands before calling an iterative solver
          3259 MiB given to the printing process from OS
          1157 MiB allocation reported by mallinfo(arena+hblkhd)
        275982 MiB available memory on the node where the printing process lives
     GPU memory used/free/total (MiB): 8500 / 31941 / 40442
------------------
     ethr =  1.88E-03,  avg # of iterations =  2.0

     total cpu time spent up to now is       57.9 secs

     total energy              =   -9183.33421025 Ry
     estimated scf accuracy    <       5.82019706 Ry

     total magnetization       =     1.30 Bohr mag/cell
     absolute magnetization    =    12.51 Bohr mag/cell
[tb_dev] Currently allocated     0.00E+00 Mbytes, locked:    0 /   0
[tb_pin] Currently allocated     0.00E+00 Mbytes, locked:    0 /   0

     iteration #  3     ecut=    60.00 Ry     beta= 0.20
     Davidson diagonalization with overlap

---- Real-time Memory Report at c_bands before calling an iterative solver
          3318 MiB given to the printing process from OS
          1230 MiB allocation reported by mallinfo(arena+hblkhd)
        276937 MiB available memory on the node where the printing process lives
     GPU memory used/free/total (MiB): 8506 / 31935 / 40442
------------------
     ethr =  6.61E-04,  avg # of iterations =  2.0

     total cpu time spent up to now is       78.2 secs

     total energy              =   -9183.33716208 Ry
     estimated scf accuracy    <       1.63458393 Ry

     total magnetization       =     1.34 Bohr mag/cell
     absolute magnetization    =    10.38 Bohr mag/cell
[tb_dev] Currently allocated     0.00E+00 Mbytes, locked:    0 /   0
[tb_pin] Currently allocated     0.00E+00 Mbytes, locked:    0 /   0

     iteration #  4     ecut=    60.00 Ry     beta= 0.20
     Davidson diagonalization with overlap

---- Real-time Memory Report at c_bands before calling an iterative solver
          3344 MiB given to the printing process from OS
          1230 MiB allocation reported by mallinfo(arena+hblkhd)
        277184 MiB available memory on the node where the printing process lives
     GPU memory used/free/total (MiB): 8506 / 31935 / 40442
------------------
     ethr =  1.86E-04,  avg # of iterations =  4.5
     Minimization algorithm failed to find Fermi energy: reverting to bisection
     Possible cause: smearing is larger than the electronic band-gap.

     total cpu time spent up to now is      100.3 secs

     total energy              =   -9183.47187022 Ry
     estimated scf accuracy    <       0.17620926 Ry

     total magnetization       =     1.90 Bohr mag/cell
     absolute magnetization    =     6.21 Bohr mag/cell
[tb_dev] Currently allocated     0.00E+00 Mbytes, locked:    0 /   0
[tb_pin] Currently allocated     0.00E+00 Mbytes, locked:    0 /   0

     iteration #  5     ecut=    60.00 Ry     beta= 0.20
     Davidson diagonalization with overlap

---- Real-time Memory Report at c_bands before calling an iterative solver
          3400 MiB given to the printing process from OS
          1230 MiB allocation reported by mallinfo(arena+hblkhd)
        277191 MiB available memory on the node where the printing process lives
     GPU memory used/free/total (MiB): 8506 / 31935 / 40442
------------------
     c_bands:  1 eigenvalues not converged
     ethr =  2.00E-05,  avg # of iterations =  9.6

     total cpu time spent up to now is      129.0 secs

     total energy              =   -9183.50562297 Ry
     estimated scf accuracy    <       0.03680415 Ry

     total magnetization       =     1.65 Bohr mag/cell
     absolute magnetization    =     4.68 Bohr mag/cell
[tb_dev] Currently allocated     0.00E+00 Mbytes, locked:    0 /   0
[tb_pin] Currently allocated     0.00E+00 Mbytes, locked:    0 /   0

     iteration #  6     ecut=    60.00 Ry     beta= 0.20
     Davidson diagonalization with overlap

---- Real-time Memory Report at c_bands before calling an iterative solver
          3437 MiB given to the printing process from OS
          1249 MiB allocation reported by mallinfo(arena+hblkhd)
        277322 MiB available memory on the node where the printing process lives
     GPU memory used/free/total (MiB): 8508 / 31933 / 40442
------------------
     ethr =  4.18E-06,  avg # of iterations =  2.9

     total cpu time spent up to now is      150.2 secs

     total energy              =   -9183.50855993 Ry
     estimated scf accuracy    <       0.02013594 Ry

     total magnetization       =     1.61 Bohr mag/cell
     absolute magnetization    =     4.00 Bohr mag/cell
[tb_dev] Currently allocated     0.00E+00 Mbytes, locked:    0 /   0
[tb_pin] Currently allocated     0.00E+00 Mbytes, locked:    0 /   0

     iteration #  7     ecut=    60.00 Ry     beta= 0.20
     Davidson diagonalization with overlap

---- Real-time Memory Report at c_bands before calling an iterative solver
          3470 MiB given to the printing process from OS
          1249 MiB allocation reported by mallinfo(arena+hblkhd)
        276895 MiB available memory on the node where the printing process lives
     GPU memory used/free/total (MiB): 8508 / 31933 / 40442
------------------
     ethr =  2.29E-06,  avg # of iterations =  3.7

     total cpu time spent up to now is      170.9 secs

     total energy              =   -9183.51011404 Ry
     estimated scf accuracy    <       0.00419586 Ry

     total magnetization       =     1.60 Bohr mag/cell
     absolute magnetization    =     3.23 Bohr mag/cell
[tb_dev] Currently allocated     0.00E+00 Mbytes, locked:    0 /   0
[tb_pin] Currently allocated     0.00E+00 Mbytes, locked:    0 /   0

     iteration #  8     ecut=    60.00 Ry     beta= 0.20
     Davidson diagonalization with overlap

---- Real-time Memory Report at c_bands before calling an iterative solver
          3504 MiB given to the printing process from OS
          1249 MiB allocation reported by mallinfo(arena+hblkhd)
        276879 MiB available memory on the node where the printing process lives
     GPU memory used/free/total (MiB): 8508 / 31933 / 40442
------------------
     ethr =  4.76E-07,  avg # of iterations =  3.9

     total cpu time spent up to now is      194.0 secs

     total energy              =   -9183.51104413 Ry
     estimated scf accuracy    <       0.00062477 Ry

     total magnetization       =     1.58 Bohr mag/cell
     absolute magnetization    =     2.59 Bohr mag/cell
[tb_dev] Currently allocated     0.00E+00 Mbytes, locked:    0 /   0
[tb_pin] Currently allocated     0.00E+00 Mbytes, locked:    0 /   0

     iteration #  9     ecut=    60.00 Ry     beta= 0.20
     Davidson diagonalization with overlap

---- Real-time Memory Report at c_bands before calling an iterative solver
          3538 MiB given to the printing process from OS
          1249 MiB allocation reported by mallinfo(arena+hblkhd)
        279312 MiB available memory on the node where the printing process lives
     GPU memory used/free/total (MiB): 8508 / 31933 / 40442
------------------
     ethr =  7.09E-08,  avg # of iterations =  4.3

     total cpu time spent up to now is      215.8 secs

     total energy              =   -9183.51119426 Ry
     estimated scf accuracy    <       0.00045704 Ry

     total magnetization       =     1.55 Bohr mag/cell
     absolute magnetization    =     2.46 Bohr mag/cell
[tb_dev] Currently allocated     0.00E+00 Mbytes, locked:    0 /   0
[tb_pin] Currently allocated     0.00E+00 Mbytes, locked:    0 /   0

     iteration # 10     ecut=    60.00 Ry     beta= 0.20
     Davidson diagonalization with overlap

---- Real-time Memory Report at c_bands before calling an iterative solver
          3572 MiB given to the printing process from OS
          1249 MiB allocation reported by mallinfo(arena+hblkhd)
        273784 MiB available memory on the node where the printing process lives
     GPU memory used/free/total (MiB): 8508 / 31933 / 40442
------------------
     ethr =  5.19E-08,  avg # of iterations =  2.4

     total cpu time spent up to now is      237.1 secs

     total energy              =   -9183.51127806 Ry
     estimated scf accuracy    <       0.00020737 Ry

     total magnetization       =     1.48 Bohr mag/cell
     absolute magnetization    =     2.26 Bohr mag/cell
[tb_dev] Currently allocated     0.00E+00 Mbytes, locked:    0 /   0
[tb_pin] Currently allocated     0.00E+00 Mbytes, locked:    0 /   0

     iteration # 11     ecut=    60.00 Ry     beta= 0.20
     Davidson diagonalization with overlap

---- Real-time Memory Report at c_bands before calling an iterative solver
          3606 MiB given to the printing process from OS
          1249 MiB allocation reported by mallinfo(arena+hblkhd)
        272815 MiB available memory on the node where the printing process lives
     GPU memory used/free/total (MiB): 8508 / 31933 / 40442
------------------
     ethr =  2.35E-08,  avg # of iterations =  4.0

     total cpu time spent up to now is      259.1 secs

     total energy              =   -9183.51133844 Ry
     estimated scf accuracy    <       0.00006007 Ry

     total magnetization       =     1.43 Bohr mag/cell
     absolute magnetization    =     2.12 Bohr mag/cell
[tb_dev] Currently allocated     0.00E+00 Mbytes, locked:    0 /   0
[tb_pin] Currently allocated     0.00E+00 Mbytes, locked:    0 /   0

     iteration # 12     ecut=    60.00 Ry     beta= 0.20
     Davidson diagonalization with overlap

---- Real-time Memory Report at c_bands before calling an iterative solver
          3640 MiB given to the printing process from OS
          1249 MiB allocation reported by mallinfo(arena+hblkhd)
        272929 MiB available memory on the node where the printing process lives
     GPU memory used/free/total (MiB): 8526 / 31915 / 40442
------------------
     ethr =  6.82E-09,  avg # of iterations =  3.5

     total cpu time spent up to now is      281.1 secs

     total energy              =   -9183.51134868 Ry
     estimated scf accuracy    <       0.00005235 Ry

     total magnetization       =     1.40 Bohr mag/cell
     absolute magnetization    =     2.07 Bohr mag/cell
[tb_dev] Currently allocated     0.00E+00 Mbytes, locked:    0 /   0
[tb_pin] Currently allocated     0.00E+00 Mbytes, locked:    0 /   0

     iteration # 13     ecut=    60.00 Ry     beta= 0.20
     Davidson diagonalization with overlap

---- Real-time Memory Report at c_bands before calling an iterative solver
          3673 MiB given to the printing process from OS
          1249 MiB allocation reported by mallinfo(arena+hblkhd)
        263909 MiB available memory on the node where the printing process lives
     GPU memory used/free/total (MiB): 8526 / 31915 / 40442
------------------
     ethr =  5.94E-09,  avg # of iterations =  3.1

     total cpu time spent up to now is      302.6 secs

     total energy              =   -9183.51136243 Ry
     estimated scf accuracy    <       0.00001639 Ry

     total magnetization       =     1.37 Bohr mag/cell
     absolute magnetization    =     2.02 Bohr mag/cell
[tb_dev] Currently allocated     0.00E+00 Mbytes, locked:    0 /   0
[tb_pin] Currently allocated     0.00E+00 Mbytes, locked:    0 /   0

     iteration # 14     ecut=    60.00 Ry     beta= 0.20
     Davidson diagonalization with overlap

---- Real-time Memory Report at c_bands before calling an iterative solver
          3707 MiB given to the printing process from OS
          1249 MiB allocation reported by mallinfo(arena+hblkhd)
        251364 MiB available memory on the node where the printing process lives
     GPU memory used/free/total (MiB): 8526 / 31915 / 40442
------------------
     ethr =  1.86E-09,  avg # of iterations =  4.6

     total cpu time spent up to now is      325.2 secs

     total energy              =   -9183.51137293 Ry
     estimated scf accuracy    <       0.00000420 Ry

     total magnetization       =     1.34 Bohr mag/cell
     absolute magnetization    =     1.98 Bohr mag/cell
[tb_dev] Currently allocated     0.00E+00 Mbytes, locked:    0 /   0
[tb_pin] Currently allocated     0.00E+00 Mbytes, locked:    0 /   0

     iteration # 15     ecut=    60.00 Ry     beta= 0.20
     Davidson diagonalization with overlap

---- Real-time Memory Report at c_bands before calling an iterative solver
          3707 MiB given to the printing process from OS
          1249 MiB allocation reported by mallinfo(arena+hblkhd)
        254678 MiB available memory on the node where the printing process lives
     GPU memory used/free/total (MiB): 8526 / 31915 / 40442
------------------
     ethr =  4.76E-10,  avg # of iterations =  3.4

     total cpu time spent up to now is      347.0 secs

     total energy              =   -9183.51137451 Ry
     estimated scf accuracy    <       0.00000260 Ry

     total magnetization       =     1.33 Bohr mag/cell
     absolute magnetization    =     1.97 Bohr mag/cell
[tb_dev] Currently allocated     0.00E+00 Mbytes, locked:    0 /   0
[tb_pin] Currently allocated     0.00E+00 Mbytes, locked:    0 /   0

     iteration # 16     ecut=    60.00 Ry     beta= 0.20
     Davidson diagonalization with overlap

---- Real-time Memory Report at c_bands before calling an iterative solver
          3707 MiB given to the printing process from OS
          1249 MiB allocation reported by mallinfo(arena+hblkhd)
        251852 MiB available memory on the node where the printing process lives
     GPU memory used/free/total (MiB): 8526 / 31915 / 40442
------------------
     ethr =  2.95E-10,  avg # of iterations =  4.9

     total cpu time spent up to now is      372.1 secs

     total energy              =   -9183.51137768 Ry
     estimated scf accuracy    <       0.00000103 Ry

     total magnetization       =     1.30 Bohr mag/cell
     absolute magnetization    =     1.94 Bohr mag/cell
[tb_dev] Currently allocated     0.00E+00 Mbytes, locked:    0 /   0
[tb_pin] Currently allocated     0.00E+00 Mbytes, locked:    0 /   0

     iteration # 17     ecut=    60.00 Ry     beta= 0.20
     Davidson diagonalization with overlap

---- Real-time Memory Report at c_bands before calling an iterative solver
          3707 MiB given to the printing process from OS
          1249 MiB allocation reported by mallinfo(arena+hblkhd)
        253199 MiB available memory on the node where the printing process lives
     GPU memory used/free/total (MiB): 8526 / 31915 / 40442
------------------
     ethr =  1.17E-10,  avg # of iterations =  2.8

     total cpu time spent up to now is      393.2 secs

     total energy              =   -9183.51137822 Ry
     estimated scf accuracy    <       0.00000062 Ry

     total magnetization       =     1.30 Bohr mag/cell
     absolute magnetization    =     1.93 Bohr mag/cell
[tb_dev] Currently allocated     0.00E+00 Mbytes, locked:    0 /   0
[tb_pin] Currently allocated     0.00E+00 Mbytes, locked:    0 /   0

     iteration # 18     ecut=    60.00 Ry     beta= 0.20
     Davidson diagonalization with overlap

---- Real-time Memory Report at c_bands before calling an iterative solver
          3707 MiB given to the printing process from OS
          1249 MiB allocation reported by mallinfo(arena+hblkhd)
        249730 MiB available memory on the node where the printing process lives
     GPU memory used/free/total (MiB): 8526 / 31915 / 40442
------------------
     ethr =  7.08E-11,  avg # of iterations =  4.8

     total cpu time spent up to now is      417.1 secs

     total energy              =   -9183.51137865 Ry
     estimated scf accuracy    <       0.00000028 Ry

     total magnetization       =     1.29 Bohr mag/cell
     absolute magnetization    =     1.92 Bohr mag/cell
[tb_dev] Currently allocated     0.00E+00 Mbytes, locked:    0 /   0
[tb_pin] Currently allocated     0.00E+00 Mbytes, locked:    0 /   0

     iteration # 19     ecut=    60.00 Ry     beta= 0.20
     Davidson diagonalization with overlap

---- Real-time Memory Report at c_bands before calling an iterative solver
          3707 MiB given to the printing process from OS
          1249 MiB allocation reported by mallinfo(arena+hblkhd)
        248725 MiB available memory on the node where the printing process lives
     GPU memory used/free/total (MiB): 8532 / 31909 / 40442
------------------
     ethr =  3.13E-11,  avg # of iterations =  5.0

     total cpu time spent up to now is      442.5 secs

     total energy              =   -9183.51137915 Ry
     estimated scf accuracy    <       0.00000011 Ry

     total magnetization       =     1.28 Bohr mag/cell
     absolute magnetization    =     1.91 Bohr mag/cell
[tb_dev] Currently allocated     0.00E+00 Mbytes, locked:    0 /   0
[tb_pin] Currently allocated     0.00E+00 Mbytes, locked:    0 /   0

     iteration # 20     ecut=    60.00 Ry     beta= 0.20
     Davidson diagonalization with overlap

---- Real-time Memory Report at c_bands before calling an iterative solver
          3707 MiB given to the printing process from OS
          1249 MiB allocation reported by mallinfo(arena+hblkhd)
        248666 MiB available memory on the node where the printing process lives
     GPU memory used/free/total (MiB): 8532 / 31909 / 40442
------------------
     ethr =  1.21E-11,  avg # of iterations =  2.0
     Minimization algorithm failed to find Fermi energy: reverting to bisection
     Possible cause: smearing is larger than the electronic band-gap.
 
     Magnetic moment per site  (integrated on atomic sphere of radius R)
     atom   1 (R=0.101)  charge= 13.8109  magn= -0.0010
     atom   2 (R=0.101)  charge= 13.8122  magn= -0.0025
     atom   3 (R=0.065)  charge=  1.0232  magn= -0.0000
     atom   4 (R=0.065)  charge=  1.0242  magn=  0.0002
     atom   5 (R=0.065)  charge=  1.0240  magn= -0.0000
     atom   6 (R=0.065)  charge=  1.0237  magn= -0.0000
     atom   7 (R=0.101)  charge= 13.8136  magn=  0.0041
     atom   8 (R=0.101)  charge= 13.8186  magn=  0.0142
     atom   9 (R=0.065)  charge=  1.0246  magn= -0.0003
     atom  10 (R=0.065)  charge=  1.0243  magn= -0.0015
     atom  11 (R=0.065)  charge=  1.0223  magn= -0.0005
     atom  12 (R=0.065)  charge=  1.0242  magn= -0.0002
     atom  13 (R=0.101)  charge= 13.8158  magn=  0.0077
     atom  14 (R=0.101)  charge= 13.8134  magn=  0.0112
     atom  15 (R=0.065)  charge=  1.0241  magn= -0.0003
     atom  16 (R=0.065)  charge=  1.0341  magn=  0.0020
     atom  17 (R=0.065)  charge=  1.0227  magn= -0.0003
     atom  18 (R=0.065)  charge=  1.0238  magn= -0.0002
     atom  19 (R=0.101)  charge= 13.8133  magn=  0.0041
     atom  20 (R=0.101)  charge= 13.8115  magn= -0.0034
     atom  21 (R=0.065)  charge=  1.0247  magn= -0.0003
     atom  22 (R=0.065)  charge=  1.0239  magn= -0.0016
     atom  23 (R=0.065)  charge=  1.0242  magn= -0.0001
     atom  24 (R=0.065)  charge=  1.0239  magn= -0.0000
     atom  25 (R=0.101)  charge= 13.8073  magn=  0.0183
     atom  26 (R=0.101)  charge= 13.8113  magn= -0.0016
     atom  27 (R=0.065)  charge=  1.0239  magn= -0.0001
     atom  28 (R=0.065)  charge=  1.0238  magn=  0.0002
     atom  29 (R=0.065)  charge=  1.0242  magn=  0.0001
     atom  30 (R=0.065)  charge=  1.0230  magn= -0.0008
     atom  31 (R=0.101)  charge= 13.8154  magn=  0.0374
     atom  32 (R=0.101)  charge= 13.8089  magn=  0.0344
     atom  33 (R=0.065)  charge=  1.0244  magn=  0.0001
     atom  34 (R=0.065)  charge=  1.0235  magn= -0.0008
     atom  35 (R=0.065)  charge=  1.0245  magn=  0.0000
     atom  36 (R=0.065)  charge=  1.0262  magn=  0.0085
     atom  37 (R=0.101)  charge= 13.8078  magn=  0.0002
     atom  38 (R=0.101)  charge= 13.8099  magn=  0.0446
     atom  39 (R=0.065)  charge=  1.0238  magn= -0.0001
     atom  40 (R=0.065)  charge=  1.0211  magn=  0.0000
     atom  41 (R=0.065)  charge=  1.0246  magn=  0.0001
     atom  42 (R=0.065)  charge=  1.0268  magn=  0.0103
     atom  43 (R=0.101)  charge= 13.8153  magn=  0.0388
     atom  44 (R=0.101)  charge= 13.8113  magn= -0.0033
     atom  45 (R=0.065)  charge=  1.0240  magn=  0.0001
     atom  46 (R=0.065)  charge=  1.0229  magn= -0.0009
     atom  47 (R=0.065)  charge=  1.0242  magn=  0.0001
     atom  48 (R=0.065)  charge=  1.0231  magn= -0.0008
     atom  49 (R=0.101)  charge= 13.8110  magn=  0.0071
     atom  50 (R=0.101)  charge= 13.8111  magn= -0.0042
     atom  51 (R=0.065)  charge=  1.0236  magn=  0.0001
     atom  52 (R=0.065)  charge=  1.0239  magn= -0.0001
     atom  53 (R=0.065)  charge=  1.0236  magn= -0.0008
     atom  54 (R=0.065)  charge=  1.0237  magn=  0.0001
     atom  55 (R=0.101)  charge= 13.8121  magn= -0.0082
     atom  56 (R=0.101)  charge= 13.8121  magn=  0.0436
     atom  57 (R=0.065)  charge=  1.0231  magn= -0.0009
     atom  58 (R=0.065)  charge=  1.0233  magn=  0.0001
     atom  59 (R=0.065)  charge=  1.0277  magn=  0.0111
     atom  60 (R=0.065)  charge=  1.0241  magn= -0.0000
     atom  61 (R=0.101)  charge= 13.8016  magn=  0.0102
     atom  62 (R=0.101)  charge= 13.8109  magn=  0.0381
     atom  63 (R=0.065)  charge=  1.0225  magn=  0.0000
     atom  64 (R=0.065)  charge=  1.0238  magn=  0.0000
     atom  65 (R=0.065)  charge=  1.0268  magn=  0.0108
     atom  66 (R=0.065)  charge=  1.0242  magn= -0.0000
     atom  67 (R=0.101)  charge= 13.8119  magn= -0.0083
     atom  68 (R=0.101)  charge= 13.8106  magn= -0.0043
     atom  69 (R=0.065)  charge=  1.0232  magn= -0.0009
     atom  70 (R=0.065)  charge=  1.0234  magn=  0.0001
     atom  71 (R=0.065)  charge=  1.0237  magn= -0.0008
     atom  72 (R=0.065)  charge=  1.0236  magn=  0.0001
     atom  73 (R=0.101)  charge= 13.8067  magn= -0.0470
     atom  74 (R=0.101)  charge= 13.8086  magn= -0.0051
     atom  75 (R=0.065)  charge=  1.0239  magn=  0.0003
     atom  76 (R=0.065)  charge=  1.0232  magn=  0.0000
     atom  77 (R=0.065)  charge=  1.0242  magn= -0.0000
     atom  78 (R=0.065)  charge=  1.0237  magn= -0.0001
     atom  79 (R=0.101)  charge= 13.7819  magn=  0.3746
     atom  80 (R=0.101)  charge= 13.8039  magn=  0.0330
     atom  81 (R=0.065)  charge=  1.0244  magn= -0.0016
     atom  82 (R=0.065)  charge=  1.0243  magn= -0.0000
     atom  83 (R=0.065)  charge=  1.0244  magn= -0.0002
     atom  84 (R=0.065)  charge=  1.0231  magn= -0.0008
     atom  85 (R=0.101)  charge= 13.8041  magn=  0.0318
     atom  86 (R=0.065)  charge=  1.0254  magn=  0.0081
     atom  87 (R=0.065)  charge=  1.0239  magn= -0.0005
     atom  88 (R=0.065)  charge=  1.0240  magn= -0.0002
     atom  89 (R=0.065)  charge=  1.0230  magn= -0.0009
     atom  90 (R=0.101)  charge= 13.7810  magn=  0.3977
     atom  91 (R=0.101)  charge= 13.8085  magn= -0.0046
     atom  92 (R=0.065)  charge=  1.0240  magn= -0.0017
     atom  93 (R=0.065)  charge=  1.0239  magn= -0.0001
     atom  94 (R=0.065)  charge=  1.0242  magn= -0.0000
     atom  95 (R=0.065)  charge=  1.0237  magn= -0.0000
     atom  96 (R=0.065)  charge=  0.6502  magn=  0.0009

     total cpu time spent up to now is      462.3 secs

     End of self-consistent calculation

 ------ SPIN UP ------------


          k = 0.0000 0.0000 0.0000 ( 69157 PWs)   bands (ev):

   -75.3587 -75.3373 -74.9451 -74.9418 -74.9401 -74.9348 -74.8965 -74.8953
   -74.8876 -74.8864 -74.8795 -74.8753 -74.8620 -74.8549 -74.8547 -74.8511
   -74.8506 -74.8501 -74.8498 -74.8485 -74.8477 -74.8464 -74.8455 -74.8452
   -74.8440 -74.8430 -74.8417 -74.8379 -74.8373 -74.8355 -74.8343 -41.4207
   -41.3973 -41.3941 -41.3672 -41.1691 -41.1607 -41.0193 -41.0118 -40.9828
   -40.9772 -40.9744 -40.9659 -40.9593 -40.9499 -40.9467 -40.9327 -40.9316
   -40.9308 -40.9305 -40.9301 -40.9289 -40.9282 -40.9262 -40.9259 -40.9246
   -40.9243 -40.9206 -40.9202 -40.9195 -40.9185 -40.9179 -40.9109 -40.9103
   -40.9097 -40.9091 -40.9026 -40.9019 -40.8803 -40.8727 -40.8548 -40.8475
   -40.8417 -40.8405 -40.8275 -40.8272 -40.8230 -40.8081 -40.8040 -40.8030
   -40.8008 -40.7983 -40.7951 -40.7913 -40.7906 -40.7899 -40.7895 -40.7862
   -40.7855 -40.7844 -40.7831 -40.7818 -40.7818 -40.7804 -40.7782 -40.7768
   -40.7762 -40.7753 -40.7749 -40.7722 -40.7707 -40.7698 -40.7682 -40.7670
   -40.7595 -40.7559 -40.7558 -40.7502 -40.7498 -40.7479 -40.7444 -40.7434
   -40.7431 -40.7392 -40.7376 -40.7372 -40.7346 -40.7327 -40.7319 -40.7308
   -40.7286 -40.7267 -40.7264 -40.7193  -4.3759  -3.8604  -3.8406  -3.4907
    -3.4470  -3.1024  -3.0612  -3.0507  -3.0272  -2.9794  -2.9154  -2.6990
    -2.6625  -2.6585  -2.6506  -2.6216  -2.5888  -2.5537  -2.5396  -2.4919
    -2.4716  -2.3639  -2.3471  -2.3435  -2.3226  -2.2344  -2.2318  -2.1028
    -2.0822  -2.0259  -1.9824  -1.9371  -1.4270  -1.3147  -1.0613  -0.9441
    -0.8985  -0.8631  -0.6493  -0.5799  -0.5412  -0.4539  -0.4524  -0.3818
    -0.3490  -0.2811  -0.2508  -0.2456  -0.0718  -0.0577  -0.0280   0.0910
     0.1003   0.2600   0.2805   0.2993   0.3022   0.3592   0.3949   0.4458
     0.4849   0.4999   0.6297   0.6710   4.4426   4.6987   4.7344   4.9035
     5.1250   5.1534   5.1541   5.1725   5.1892   5.2225   5.2485   5.2532
     5.2661   5.3023   5.3058   5.3140   5.4096   5.5398   5.5487   5.6427
     5.6835   5.6864   5.7019   5.7600   5.8529   5.8786   5.8893   5.9202
     5.9237   5.9300   5.9450   5.9559   5.9758   6.0050   6.0264   6.0627
     6.0764   6.1738   6.2305   6.2846   6.5249   6.5795   6.5950   6.6001
     6.6989   6.7556   6.7619   6.8047   6.8232   6.8308   6.8396   6.8809
     6.9676   6.9780   7.0129   7.0727   7.1345   7.1415   7.1741   7.1800
     7.1891   7.2128   7.2176   7.2427   7.3071   7.3484   7.3554   7.4484
     7.6659   7.7734   7.7971   7.7998   7.8148   7.8170   7.8435   7.8503
     7.8560   7.8590   7.8701   7.8744   7.8815   7.8906   7.8962   7.9007
     7.9399   7.9462   7.9933   8.0735   8.1307   8.1601   8.1848   8.2471
     8.2634   8.2958   8.3020   8.3398   8.3619   8.4058   8.4522   8.4549
     8.4891   8.4944   8.5018   8.5247   8.5330   8.5365   8.5775   8.6115
     8.6179   8.6299   8.6585   8.6766   8.6778   8.7321   8.7367   8.7443
     8.7524   8.7756   8.8131   8.8145   8.8487   8.8718   8.9015   8.9472
     8.9518   8.9672   9.0374   9.1532   9.2505   9.3297   9.3414   9.3617
     9.3955   9.4263   9.4779   9.4871   9.5076   9.5508   9.5562   9.5791
     9.5826   9.6069   9.6121   9.6165   9.6511   9.6575   9.8517   9.8572
     9.8699   9.9766  10.0734  10.1716  10.2182  10.2246  10.3638  10.3868
    10.4024  10.4192  10.4723  10.6025  10.6713  10.6784  10.7244  10.7461
    10.7493  10.8098  10.8223  10.8256  10.8369  10.8400  10.8551  10.8678
    10.8750  10.8807  10.8847  10.8972  10.9087  10.9572  10.9636  10.9739
    11.0031  11.0456  11.1072  11.1247  11.1363  11.1594  11.1666  11.1789
    11.1971  11.2240  11.2593  11.2632  11.2700  11.2784  11.2800  11.2865
    11.2920  11.2953  11.3074  11.3169  11.3425  11.3605  11.3726  11.3804
    11.3852  11.3908  11.3942  11.4051  11.4208  11.4286  11.4781  11.4817
    11.4981  11.5170  11.5247  11.5907  11.6044  11.6150  11.6539  11.6618
    11.6784  11.6789  11.6848  11.6900  11.7136  11.7418  11.7486  11.7923
    11.8164  11.8434  11.8873  11.9092  11.9125  11.9413  11.9461  11.9483
    11.9767  11.9772  11.9952  12.0038  12.0709  12.0718  12.1043  12.1053
    12.1559  12.1837  12.1868  12.2406  12.2665  12.2729  12.2885  12.3454
    12.3504  13.0905  13.1240  13.2841  13.3245  13.3361  13.3550  13.3606
    13.4288  13.4461  13.5180  13.6346  13.6418  13.6465  13.6480  13.6826
    13.6963  13.7400  13.7542  13.7909  13.8197  13.8238  13.8283  13.8431
    13.8493  13.8756  13.8823  13.9115  13.9278  13.9309  13.9449  13.9548
    13.9685  14.0095  14.0515  14.0949  14.1056  14.1441  14.1562  14.1570
    14.1649  14.1667  14.1786  14.1824  14.2298  14.2426  14.2747  14.2926
    14.3375  14.3432  14.3650  14.3791  14.4002  14.4254  14.4371  14.4474
    14.4910  14.5451  14.5484  14.6500  14.6793  14.6995  14.7315  14.7539
    14.7653  14.7741  14.7890  14.8141  14.8172  14.8388  14.8794  14.8828
    14.9436  14.9455  14.9543  14.9842  15.0102  15.0577  15.0693  15.1432
    15.1733  15.2412  15.2570  15.2840  15.3609  15.3969  15.4176  15.4723
    15.4952

     occupation numbers 
     1.0000   1.0000   1.0000   1.0000   1.0000   1.0000   1.0000   1.0000
     1.0000   1.0000   1.0000   1.0000   1.0000   1.0000   1.0000   1.0000
     1.0000   1.0000   1.0000   1.0000   1.0000   1.0000   1.0000   1.0000
     1.0000   1.0000   1.0000   1.0000   1.0000   1.0000   1.0000   1.0000
     1.0000   1.0000   1.0000   1.0000   1.0000   1.0000   1.0000   1.0000
     1.0000   1.0000   1.0000   1.0000   1.0000   1.0000   1.0000   1.0000
     1.0000   1.0000   1.0000   1.0000   1.0000   1.0000   1.0000   1.0000
     1.0000   1.0000   1.0000   1.0000   1.0000   1.0000   1.0000   1.0000
     1.0000   1.0000   1.0000   1.0000   1.0000   1.0000   1.0000   1.0000
     1.0000   1.0000   1.0000   1.0000   1.0000   1.0000   1.0000   1.0000
     1.0000   1.0000   1.0000   1.0000   1.0000   1.0000   1.0000   1.0000
     1.0000   1.0000   1.0000   1.0000   1.0000   1.0000   1.0000   1.0000
     1.0000   1.0000   1.0000   1.0000   1.0000   1.0000   1.0000   1.0000
     1.0000   1.0000   1.0000   1.0000   1.0000   1.0000   1.0000   1.0000
     1.0000   1.0000   1.0000   1.0000   1.0000   1.0000   1.0000   1.0000
     1.0000   1.0000   1.0000   1.0000   1.0000   1.0000   1.0000   1.0000
     1.0000   1.0000   1.0000   1.0000   1.0000   1.0000   1.0000   1.0000
     1.0000   1.0000   1.0000   1.0000   1.0000   1.0000   1.0000   1.0000
     1.0000   1.0000   1.0000   1.0000   1.0000   1.0000   1.0000   1.0000
     1.0000   1.0000   1.0000   1.0000   1.0000   1.0000   1.0000   1.0000
     1.0000   1.0000   1.0000   1.0000   1.0000   1.0000   1.0000   1.0000
     1.0000   1.0000   1.0000   1.0000   1.0000   1.0000   1.0000   1.0000
     1.0000   1.0000   1.0000   1.0000   1.0000   1.0000   1.0000   1.0000
     1.0000   1.0000   1.0000   1.0000   1.0000   1.0000   1.0000   1.0000
     1.0000   1.0000   1.0000   1.0000   1.0000   1.0000   1.0000   1.0000
     1.0000   1.0000   1.0000   1.0000   1.0000   1.0000   1.0000   1.0000
     1.0000   1.0000   1.0000   1.0000   1.0000   1.0000   1.0000   1.0000
     1.0000   1.0000   1.0000   1.0000   1.0000   1.0000   1.0000   1.0000
     1.0000   1.0000   1.0000   1.0000   1.0000   1.0000   1.0000   1.0000
     1.0000   1.0000   1.0000   1.0000   1.0000   1.0000   1.0000   1.0000
     1.0000   1.0000   1.0000   1.0000   1.0000   1.0000   1.0000   1.0000
     1.0000   1.0000   1.0000   1.0000   1.0000   1.0000   1.0000   1.0000
     1.0000   1.0000   1.0000   1.0000   1.0000   1.0000   1.0000   1.0000
     1.0000   1.0000   1.0000   1.0000   1.0000   1.0000   1.0000   1.0000
     1.0000   1.0000   1.0000   1.0000   1.0000   1.0000   1.0000   1.0000
     1.0000   1.0000   1.0000   1.0000   1.0000   1.0000   1.0000   1.0000
     1.0000   1.0000   1.0000   1.0000   1.0000   1.0000   1.0000   1.0000
     1.0000   1.0000   1.0000   1.0000   1.0000   1.0000   1.0000   1.0000
     1.0000   1.0000   1.0000   1.0000   1.0000   1.0000   1.0000   1.0000
     1.0000   1.0000   1.0000   1.0000   1.0000   1.0000   1.0000   1.0000
     1.0000   1.0000   1.0000   1.0000   1.0000   1.0000   1.0000   1.0000
     1.0000   1.0000   1.0000   1.0000   1.0000   1.0000   1.0000   1.0000
     1.0000   1.0000   1.0000   1.0000   1.0000   1.0000   1.0000   1.0000
     1.0000   1.0000   1.0000   1.0000   1.0000   1.0000   1.0000   1.0000
     1.0000   1.0000   1.0000   1.0000   1.0000   1.0000   1.0000   1.0000
     1.0000   1.0000   1.0000   1.0000   1.0000   1.0000   1.0000   1.0000
     1.0000   1.0000   1.0000   1.0000   1.0000   1.0000   1.0000   1.0000
     1.0000   1.0000   1.0000   1.0000   1.0000   1.0000   1.0000   1.0000
     1.0000   1.0000   1.0000   1.0000   1.0000   1.0000   1.0000   1.0000
     1.0000   1.0000   1.0000   1.0000   1.0000   1.0000   1.0000   1.0000
     1.0000   1.0000   1.0000   1.0000   1.0000   1.0000   1.0001   1.0001
     1.0002   1.0002   1.0002   1.0002   1.0004   1.0008   1.0009   1.0023
     1.0037   1.0062   1.0129   1.0179   1.0188   1.0277   1.0294   1.0301
     1.0416   1.0418   1.0498   1.0537   1.0802   1.0804   1.0829   1.0827
     1.0564   1.0213   1.0162   0.8969   0.8188   0.7980   0.7450   0.5376
     0.5194   0.0000   0.0000   0.0000   0.0000   0.0000   0.0000   0.0000
     0.0000   0.0000   0.0000   0.0000   0.0000   0.0000   0.0000   0.0000
     0.0000   0.0000   0.0000   0.0000   0.0000   0.0000   0.0000   0.0000
     0.0000   0.0000   0.0000   0.0000   0.0000   0.0000   0.0000   0.0000
     0.0000   0.0000   0.0000   0.0000   0.0000   0.0000   0.0000   0.0000
     0.0000   0.0000   0.0000   0.0000   0.0000   0.0000   0.0000   0.0000
     0.0000   0.0000   0.0000   0.0000   0.0000   0.0000   0.0000   0.0000
     0.0000   0.0000   0.0000   0.0000   0.0000   0.0000   0.0000   0.0000
     0.0000   0.0000   0.0000   0.0000   0.0000   0.0000   0.0000   0.0000
     0.0000   0.0000   0.0000   0.0000   0.0000   0.0000   0.0000   0.0000
     0.0000   0.0000   0.0000   0.0000   0.0000   0.0000   0.0000   0.0000
     0.0000

          k = 0.0000 0.0000 0.2186 ( 69203 PWs)   bands (ev):

   -75.3588 -75.3375 -74.9452 -74.9419 -74.9403 -74.9350 -74.8966 -74.8954
   -74.8878 -74.8866 -74.8796 -74.8754 -74.8621 -74.8550 -74.8548 -74.8511
   -74.8506 -74.8502 -74.8500 -74.8486 -74.8477 -74.8466 -74.8457 -74.8453
   -74.8442 -74.8431 -74.8419 -74.8381 -74.8375 -74.8356 -74.8345 -41.4212
   -41.3973 -41.3946 -41.3672 -41.1694 -41.1610 -41.0196 -41.0122 -40.9831
   -40.9774 -40.9750 -40.9663 -40.9597 -40.9501 -40.9472 -40.9325 -40.9317
   -40.9310 -40.9309 -40.9303 -40.9292 -40.9286 -40.9266 -40.9261 -40.9254
   -40.9247 -40.9209 -40.9206 -40.9203 -40.9193 -40.9187 -40.9113 -40.9108
   -40.9101 -40.9098 -40.9027 -40.9024 -40.8808 -40.8727 -40.8551 -40.8478
   -40.8420 -40.8410 -40.8281 -40.8274 -40.8232 -40.8084 -40.8044 -40.8034
   -40.8014 -40.7988 -40.7946 -40.7916 -40.7909 -40.7904 -40.7899 -40.7868
   -40.7860 -40.7850 -40.7835 -40.7825 -40.7820 -40.7804 -40.7781 -40.7772
   -40.7761 -40.7756 -40.7753 -40.7724 -40.7714 -40.7706 -40.7686 -40.7676
   -40.7600 -40.7564 -40.7560 -40.7502 -40.7494 -40.7489 -40.7457 -40.7442
   -40.7424 -40.7390 -40.7375 -40.7370 -40.7340 -40.7332 -40.7314 -40.7303
   -40.7285 -40.7273 -40.7257 -40.7188  -4.3150  -4.1345  -3.5003  -3.4330
    -3.3950  -3.2859  -3.2518  -3.0698  -2.9739  -2.8917  -2.8362  -2.7944
    -2.7810  -2.7676  -2.6018  -2.5627  -2.5477  -2.5237  -2.4704  -2.4636
    -2.4315  -2.4261  -2.3161  -2.3005  -2.2899  -2.2293  -2.2169  -2.1299
    -2.1142  -2.0928  -1.9914  -1.9326  -1.3822  -1.2755  -1.2117  -1.0820
    -0.8088  -0.6611  -0.6053  -0.5739  -0.5670  -0.4880  -0.4832  -0.3969
    -0.3581  -0.3088  -0.2253  -0.2192  -0.1484  -0.0860   0.0486   0.1179
     0.1446   0.1961   0.2456   0.2846   0.3406   0.3613   0.3751   0.4407
     0.4874   0.5095   0.6335   0.6698   4.4630   4.7669   4.7920   4.8518
     4.9569   4.9932   5.1455   5.2313   5.2703   5.2886   5.3192   5.3512
     5.3573   5.3714   5.4043   5.4287   5.4644   5.5126   5.5201   5.5404
     5.5437   5.5602   5.5915   5.6015   5.6566   5.6730   5.8118   5.8246
     5.8899   5.9586   5.9628   5.9756   5.9995   6.0781   6.1504   6.1845
     6.3660   6.3954   6.4292   6.4531   6.4759   6.4886   6.5032   6.5324
     6.5839   6.6571   6.7001   6.7637   6.7998   6.8349   6.8586   6.8741
     6.9084   6.9307   6.9786   7.0246   7.0759   7.1178   7.1974   7.2417
     7.2733   7.2823   7.2975   7.3295   7.3504   7.4030   7.4257   7.4591
     7.4887   7.5174   7.6207   7.6734   7.7311   7.7575   7.7753   7.8381
     7.8682   7.8787   7.8887   7.9199   7.9487   7.9764   7.9878   8.0433
     8.0603   8.0779   8.1073   8.1218   8.1556   8.1909   8.2193   8.2412
     8.2872   8.3223   8.3408   8.3607   8.3703   8.3900   8.3997   8.4180
     8.4243   8.4477   8.4493   8.4722   8.4981   8.5095   8.5248   8.5377
     8.5792   8.5986   8.6232   8.6702   8.7070   8.7302   8.7676   8.7952
     8.7970   8.8209   8.8434   8.8482   8.8602   8.8709   8.9223   8.9945
     9.0054   9.0751   9.1454   9.1760   9.2133   9.2271   9.2910   9.3634
     9.4054   9.4530   9.4672   9.4855   9.4932   9.5109   9.5239   9.5312
     9.5634   9.5913   9.6538   9.6701   9.6872   9.7909   9.8404   9.8654
     9.9696   9.9908  10.0508  10.0993  10.2007  10.2284  10.2571  10.3462
    10.4243  10.4430  10.4764  10.4919  10.4971  10.5265  10.5579  10.5798
    10.6744  10.6848  10.7189  10.7414  10.7589  10.7956  10.8026  10.8097
    10.8539  10.8631  10.8932  10.9059  10.9611  10.9703  10.9971  11.0123
    11.0867  11.1010  11.1128  11.1316  11.1499  11.1911  11.1959  11.2192
    11.2251  11.2382  11.2522  11.2580  11.2699  11.2766  11.2883  11.2996
    11.3248  11.3382  11.3525  11.3729  11.3805  11.4004  11.4114  11.4204
    11.4538  11.4597  11.4650  11.4705  11.4860  11.4913  11.4988  11.5072
    11.5118  11.5232  11.5433  11.5633  11.5929  11.6049  11.6216  11.6350
    11.6473  11.6791  11.7081  11.7278  11.7470  11.7576  11.7921  11.8210
    11.8234  11.8841  11.9112  11.9210  11.9315  11.9551  11.9760  11.9838
    11.9885  12.0033  12.0104  12.0307  12.0461  12.0592  12.0683  12.1070
    12.1332  12.1381  12.1550  12.1872  12.1958  12.2166  12.2359  12.3097
    12.3406  13.1243  13.1582  13.2581  13.2755  13.3489  13.4113  13.4442
    13.4700  13.5026  13.5073  13.5261  13.5527  13.5792  13.6140  13.6522
    13.6737  13.6972  13.7095  13.7210  13.7430  13.7749  13.7999  13.8090
    13.8244  13.8341  13.8465  13.8688  13.8769  13.9083  13.9368  13.9695
    13.9919  14.0438  14.0484  14.0631  14.1263  14.1521  14.1605  14.1848
    14.1942  14.2108  14.2177  14.2648  14.2835  14.3189  14.3514  14.3854
    14.4227  14.4317  14.4394  14.4473  14.4614  14.4704  14.4829  14.4938
    14.5064  14.5095  14.5561  14.5670  14.6109  14.6275  14.6365  14.6638
    14.6875  14.7004  14.7264  14.7975  14.8343  14.8553  14.8838  14.9287
    14.9767  14.9866  15.0158  15.0366  15.0613  15.1131  15.1456  15.1690
    15.1870  15.2165  15.2283  15.2867  15.3009  15.3337  15.3580  15.4020
    15.4224

     occupation numbers 
     1.0000   1.0000   1.0000   1.0000   1.0000   1.0000   1.0000   1.0000
     1.0000   1.0000   1.0000   1.0000   1.0000   1.0000   1.0000   1.0000
     1.0000   1.0000   1.0000   1.0000   1.0000   1.0000   1.0000   1.0000
     1.0000   1.0000   1.0000   1.0000   1.0000   1.0000   1.0000   1.0000
     1.0000   1.0000   1.0000   1.0000   1.0000   1.0000   1.0000   1.0000
     1.0000   1.0000   1.0000   1.0000   1.0000   1.0000   1.0000   1.0000
     1.0000   1.0000   1.0000   1.0000   1.0000   1.0000   1.0000   1.0000
     1.0000   1.0000   1.0000   1.0000   1.0000   1.0000   1.0000   1.0000
     1.0000   1.0000   1.0000   1.0000   1.0000   1.0000   1.0000   1.0000
     1.0000   1.0000   1.0000   1.0000   1.0000   1.0000   1.0000   1.0000
     1.0000   1.0000   1.0000   1.0000   1.0000   1.0000   1.0000   1.0000
     1.0000   1.0000   1.0000   1.0000   1.0000   1.0000   1.0000   1.0000
     1.0000   1.0000   1.0000   1.0000   1.0000   1.0000   1.0000   1.0000
     1.0000   1.0000   1.0000   1.0000   1.0000   1.0000   1.0000   1.0000
     1.0000   1.0000   1.0000   1.0000   1.0000   1.0000   1.0000   1.0000
     1.0000   1.0000   1.0000   1.0000   1.0000   1.0000   1.0000   1.0000
     1.0000   1.0000   1.0000   1.0000   1.0000   1.0000   1.0000   1.0000
     1.0000   1.0000   1.0000   1.0000   1.0000   1.0000   1.0000   1.0000
     1.0000   1.0000   1.0000   1.0000   1.0000   1.0000   1.0000   1.0000
     1.0000   1.0000   1.0000   1.0000   1.0000   1.0000   1.0000   1.0000
     1.0000   1.0000   1.0000   1.0000   1.0000   1.0000   1.0000   1.0000
     1.0000   1.0000   1.0000   1.0000   1.0000   1.0000   1.0000   1.0000
     1.0000   1.0000   1.0000   1.0000   1.0000   1.0000   1.0000   1.0000
     1.0000   1.0000   1.0000   1.0000   1.0000   1.0000   1.0000   1.0000
     1.0000   1.0000   1.0000   1.0000   1.0000   1.0000   1.0000   1.0000
     1.0000   1.0000   1.0000   1.0000   1.0000   1.0000   1.0000   1.0000
     1.0000   1.0000   1.0000   1.0000   1.0000   1.0000   1.0000   1.0000
     1.0000   1.0000   1.0000   1.0000   1.0000   1.0000   1.0000   1.0000
     1.0000   1.0000   1.0000   1.0000   1.0000   1.0000   1.0000   1.0000
     1.0000   1.0000   1.0000   1.0000   1.0000   1.0000   1.0000   1.0000
     1.0000   1.0000   1.0000   1.0000   1.0000   1.0000   1.0000   1.0000
     1.0000   1.0000   1.0000   1.0000   1.0000   1.0000   1.0000   1.0000
     1.0000   1.0000   1.0000   1.0000   1.0000   1.0000   1.0000   1.0000
     1.0000   1.0000   1.0000   1.0000   1.0000   1.0000   1.0000   1.0000
     1.0000   1.0000   1.0000   1.0000   1.0000   1.0000   1.0000   1.0000
     1.0000   1.0000   1.0000   1.0000   1.0000   1.0000   1.0000   1.0000
     1.0000   1.0000   1.0000   1.0000   1.0000   1.0000   1.0000   1.0000
     1.0000   1.0000   1.0000   1.0000   1.0000   1.0000   1.0000   1.0000
     1.0000   1.0000   1.0000   1.0000   1.0000   1.0000   1.0000   1.0000
     1.0000   1.0000   1.0000   1.0000   1.0000   1.0000   1.0000   1.0000
     1.0000   1.0000   1.0000   1.0000   1.0000   1.0000   1.0000   1.0000
     1.0000   1.0000   1.0000   1.0000   1.0000   1.0000   1.0000   1.0000
     1.0000   1.0000   1.0000   1.0000   1.0000   1.0000   1.0000   1.0000
     1.0000   1.0000   1.0000   1.0000   1.0000   1.0000   1.0000   1.0000
     1.0000   1.0000   1.0000   1.0000   1.0000   1.0000   1.0000   1.0000
     1.0000   1.0000   1.0000   1.0000   1.0000   1.0000   1.0000   1.0000
     1.0000   1.0000   1.0000   1.0000   1.0000   1.0000   1.0000   1.0000
     1.0000   1.0000   1.0000   1.0000   1.0000   1.0000   1.0000   1.0000
     1.0000   1.0000   1.0000   1.0000   1.0000   1.0000   1.0000   1.0000
     1.0000   1.0000   1.0000   1.0000   1.0000   1.0000   1.0000   1.0000
     1.0000   1.0000   1.0000   1.0000   1.0000   1.0000   1.0000   1.0000
     1.0001   1.0002   1.0003   1.0005   1.0009   1.0011   1.0023   1.0041
     1.0042   1.0123   1.0185   1.0212   1.0244   1.0327   1.0412   1.0447
     1.0468   1.0535   1.0568   1.0659   1.0723   1.0769   1.0796   1.0825
     1.0736   1.0707   1.0573   1.0157   1.0007   0.9578   0.9097   0.6689
     0.5551   0.0000   0.0000   0.0000   0.0000   0.0000   0.0000   0.0000
     0.0000   0.0000   0.0000   0.0000   0.0000   0.0000   0.0000   0.0000
     0.0000   0.0000   0.0000   0.0000   0.0000   0.0000   0.0000   0.0000
     0.0000   0.0000   0.0000   0.0000   0.0000   0.0000   0.0000   0.0000
     0.0000   0.0000   0.0000   0.0000   0.0000   0.0000   0.0000   0.0000
     0.0000   0.0000   0.0000   0.0000   0.0000   0.0000   0.0000   0.0000
     0.0000   0.0000   0.0000   0.0000   0.0000   0.0000   0.0000   0.0000
     0.0000   0.0000   0.0000   0.0000   0.0000   0.0000   0.0000   0.0000
     0.0000   0.0000   0.0000   0.0000   0.0000   0.0000   0.0000   0.0000
     0.0000   0.0000   0.0000   0.0000   0.0000   0.0000   0.0000   0.0000
     0.0000   0.0000   0.0000   0.0000   0.0000   0.0000   0.0000   0.0000
     0.0000

          k = 0.0000-0.4095 0.0000 ( 69190 PWs)   bands (ev):

   -75.3588 -75.3374 -74.9452 -74.9418 -74.9402 -74.9349 -74.8966 -74.8954
   -74.8877 -74.8866 -74.8796 -74.8753 -74.8620 -74.8549 -74.8548 -74.8511
   -74.8506 -74.8502 -74.8501 -74.8485 -74.8477 -74.8464 -74.8457 -74.8454
   -74.8442 -74.8431 -74.8419 -74.8380 -74.8375 -74.8356 -74.8344 -41.4207
   -41.3979 -41.3941 -41.3677 -41.1692 -41.1608 -41.0193 -41.0119 -40.9828
   -40.9770 -40.9747 -40.9660 -40.9593 -40.9498 -40.9470 -40.9319 -40.9311
   -40.9306 -40.9304 -40.9300 -40.9291 -40.9284 -40.9261 -40.9257 -40.9250
   -40.9247 -40.9203 -40.9200 -40.9199 -40.9196 -40.9184 -40.9108 -40.9106
   -40.9101 -40.9096 -40.9030 -40.9023 -40.8808 -40.8730 -40.8550 -40.8476
   -40.8417 -40.8405 -40.8278 -40.8272 -40.8232 -40.8080 -40.8040 -40.8030
   -40.8014 -40.7983 -40.7954 -40.7910 -40.7905 -40.7900 -40.7897 -40.7869
   -40.7856 -40.7845 -40.7831 -40.7823 -40.7818 -40.7809 -40.7778 -40.7770
   -40.7764 -40.7755 -40.7750 -40.7727 -40.7711 -40.7701 -40.7682 -40.7673
   -40.7596 -40.7567 -40.7563 -40.7506 -40.7500 -40.7490 -40.7450 -40.7444
   -40.7437 -40.7406 -40.7381 -40.7380 -40.7345 -40.7336 -40.7322 -40.7314
   -40.7284 -40.7277 -40.7268 -40.7197  -4.1595  -4.1165  -3.6629  -3.6515
    -3.6301  -3.5825  -2.9225  -2.7967  -2.7691  -2.7521  -2.6437  -2.5982
    -2.5788  -2.5715  -2.5680  -2.5554  -2.5443  -2.5215  -2.5188  -2.4978
    -2.4931  -2.4656  -2.4607  -2.4301  -2.3527  -2.3184  -2.3142  -2.3054
    -2.1969  -2.1880  -2.1531  -2.1294  -1.1587  -0.9934  -0.9488  -0.9026
    -0.8331  -0.6958  -0.6933  -0.6908  -0.6740  -0.6121  -0.6095  -0.4105
    -0.3547  -0.3444  -0.2830  -0.0855  -0.0323   0.0469   0.0657   0.0683
     0.0806   0.1625   0.1791   0.2188   0.3090   0.3235   0.4455   0.4474
     0.4685   0.4921   0.6036   0.6755   4.6084   4.7984   4.8823   5.2117
     5.2405   5.2566   5.2706   5.2803   5.3002   5.3091   5.3357   5.3378
     5.3476   5.3556   5.3569   5.3720   5.3745   5.3757   5.3842   5.3895
     5.4219   5.4278   5.4537   5.4573   5.4635   5.5099   5.6822   5.7341
     5.7713   5.8037   6.0804   6.1497   6.1622   6.1834   6.2457   6.2608
     6.3261   6.3296   6.3596   6.3914   6.4601   6.6119   6.6527   6.6622
     6.6642   6.6885   6.7162   6.7275   6.7593   6.7635   6.7757   6.7897
     6.8092   6.8530   6.9864   7.1055   7.1142   7.1797   7.2417   7.2478
     7.2908   7.3329   7.5172   7.5287   7.5658   7.5817   7.5831   7.6090
     7.6571   7.6841   7.7007   7.7086   7.7357   7.7569   7.7852   7.8155
     7.8591   7.8729   7.8757   7.8811   7.8988   7.9140   7.9172   7.9228
     7.9423   7.9578   7.9711   7.9872   7.9938   8.0127   8.0192   8.0551
     8.1035   8.1204   8.1536   8.1696   8.1930   8.2038   8.2686   8.2767
     8.2974   8.3536   8.3582   8.3720   8.3965   8.4408   8.4713   8.4892
     8.5271   8.6511   8.7751   8.7815   8.8219   8.8289   8.8328   8.8577
     8.8801   8.8879   8.9356   8.9943   9.0088   9.0604   9.0964   9.1332
     9.1454   9.1538   9.1712   9.1810   9.2284   9.3015   9.3573   9.3841
     9.4396   9.4461   9.4661   9.4931   9.5290   9.5315   9.5482   9.5585
     9.5621   9.5654   9.5802   9.5944   9.6242   9.7476   9.7957   9.8278
     9.8979  10.0168  10.0263  10.0908  10.1112  10.1132  10.3295  10.3470
    10.3792  10.4297  10.4985  10.5687  10.5876  10.5975  10.6400  10.6611
    10.7308  10.7344  10.7795  10.7872  10.8012  10.8116  10.8311  10.8323
    10.8590  10.8624  10.8875  10.9101  10.9555  10.9641  10.9785  10.9952
    11.0143  11.0182  11.0977  11.1192  11.1476  11.1730  11.2107  11.2205
    11.2672  11.2861  11.2999  11.3007  11.3069  11.3147  11.3201  11.3275
    11.3322  11.3378  11.3494  11.3787  11.3808  11.4066  11.4247  11.4307
    11.4488  11.4597  11.4634  11.4703  11.4780  11.5203  11.5233  11.5246
    11.5329  11.5398  11.5425  11.5674  11.6041  11.6077  11.6333  11.6533
    11.6726  11.6759  11.6927  11.7213  11.7583  11.7945  11.8032  11.8196
    11.8374  11.8525  11.8976  11.9053  11.9251  11.9312  11.9432  11.9636
    11.9682  11.9756  11.9849  11.9912  11.9955  12.0030  12.0211  12.0305
    12.0590  12.0793  12.0814  12.1061  12.1590  12.2316  12.2455  12.2631
    12.3291  13.1913  13.3112  13.3201  13.3530  13.3845  13.4024  13.5062
    13.5318  13.5588  13.5861  13.5936  13.6082  13.6118  13.6276  13.6420
    13.6785  13.6959  13.7325  13.7411  13.7590  13.8045  13.8438  13.8650
    13.8708  13.8728  13.9134  13.9218  13.9250  13.9363  13.9700  13.9891
    13.9930  14.0045  14.0139  14.0223  14.0364  14.0381  14.0538  14.0682
    14.0976  14.1316  14.1405  14.1704  14.1992  14.2145  14.2457  14.2514
    14.2531  14.2628  14.2675  14.2845  14.3104  14.3127  14.3275  14.3507
    14.4371  14.4415  14.4676  14.7285  14.7939  14.8330  14.8383  14.8565
    14.8813  14.8984  14.9087  14.9428  14.9720  15.0066  15.0446  15.0720
    15.0833  15.0885  15.0949  15.1147  15.1418  15.1500  15.1723  15.2036
    15.2329  15.2546  15.2568  15.2960  15.2997  15.3075  15.3304  15.3371
    15.3705

     occupation numbers 
     1.0000   1.0000   1.0000   1.0000   1.0000   1.0000   1.0000   1.0000
     1.0000   1.0000   1.0000   1.0000   1.0000   1.0000   1.0000   1.0000
     1.0000   1.0000   1.0000   1.0000   1.0000   1.0000   1.0000   1.0000
     1.0000   1.0000   1.0000   1.0000   1.0000   1.0000   1.0000   1.0000
     1.0000   1.0000   1.0000   1.0000   1.0000   1.0000   1.0000   1.0000
     1.0000   1.0000   1.0000   1.0000   1.0000   1.0000   1.0000   1.0000
     1.0000   1.0000   1.0000   1.0000   1.0000   1.0000   1.0000   1.0000
     1.0000   1.0000   1.0000   1.0000   1.0000   1.0000   1.0000   1.0000
     1.0000   1.0000   1.0000   1.0000   1.0000   1.0000   1.0000   1.0000
     1.0000   1.0000   1.0000   1.0000   1.0000   1.0000   1.0000   1.0000
     1.0000   1.0000   1.0000   1.0000   1.0000   1.0000   1.0000   1.0000
     1.0000   1.0000   1.0000   1.0000   1.0000   1.0000   1.0000   1.0000
     1.0000   1.0000   1.0000   1.0000   1.0000   1.0000   1.0000   1.0000
     1.0000   1.0000   1.0000   1.0000   1.0000   1.0000   1.0000   1.0000
     1.0000   1.0000   1.0000   1.0000   1.0000   1.0000   1.0000   1.0000
     1.0000   1.0000   1.0000   1.0000   1.0000   1.0000   1.0000   1.0000
     1.0000   1.0000   1.0000   1.0000   1.0000   1.0000   1.0000   1.0000
     1.0000   1.0000   1.0000   1.0000   1.0000   1.0000   1.0000   1.0000
     1.0000   1.0000   1.0000   1.0000   1.0000   1.0000   1.0000   1.0000
     1.0000   1.0000   1.0000   1.0000   1.0000   1.0000   1.0000   1.0000
     1.0000   1.0000   1.0000   1.0000   1.0000   1.0000   1.0000   1.0000
     1.0000   1.0000   1.0000   1.0000   1.0000   1.0000   1.0000   1.0000
     1.0000   1.0000   1.0000   1.0000   1.0000   1.0000   1.0000   1.0000
     1.0000   1.0000   1.0000   1.0000   1.0000   1.0000   1.0000   1.0000
     1.0000   1.0000   1.0000   1.0000   1.0000   1.0000   1.0000   1.0000
     1.0000   1.0000   1.0000   1.0000   1.0000   1.0000   1.0000   1.0000
     1.0000   1.0000   1.0000   1.0000   1.0000   1.0000   1.0000   1.0000
     1.0000   1.0000   1.0000   1.0000   1.0000   1.0000   1.0000   1.0000
     1.0000   1.0000   1.0000   1.0000   1.0000   1.0000   1.0000   1.0000
     1.0000   1.0000   1.0000   1.0000   1.0000   1.0000   1.0000   1.0000
     1.0000   1.0000   1.0000   1.0000   1.0000   1.0000   1.0000   1.0000
     1.0000   1.0000   1.0000   1.0000   1.0000   1.0000   1.0000   1.0000
     1.0000   1.0000   1.0000   1.0000   1.0000   1.0000   1.0000   1.0000
     1.0000   1.0000   1.0000   1.0000   1.0000   1.0000   1.0000   1.0000
     1.0000   1.0000   1.0000   1.0000   1.0000   1.0000   1.0000   1.0000
     1.0000   1.0000   1.0000   1.0000   1.0000   1.0000   1.0000   1.0000
     1.0000   1.0000   1.0000   1.0000   1.0000   1.0000   1.0000   1.0000
     1.0000   1.0000   1.0000   1.0000   1.0000   1.0000   1.0000   1.0000
     1.0000   1.0000   1.0000   1.0000   1.0000   1.0000   1.0000   1.0000
     1.0000   1.0000   1.0000   1.0000   1.0000   1.0000   1.0000   1.0000
     1.0000   1.0000   1.0000   1.0000   1.0000   1.0000   1.0000   1.0000
     1.0000   1.0000   1.0000   1.0000   1.0000   1.0000   1.0000   1.0000
     1.0000   1.0000   1.0000   1.0000   1.0000   1.0000   1.0000   1.0000
     1.0000   1.0000   1.0000   1.0000   1.0000   1.0000   1.0000   1.0000
     1.0000   1.0000   1.0000   1.0000   1.0000   1.0000   1.0000   1.0000
     1.0000   1.0000   1.0000   1.0000   1.0000   1.0000   1.0000   1.0000
     1.0000   1.0000   1.0000   1.0000   1.0000   1.0000   1.0000   1.0000
     1.0000   1.0000   1.0000   1.0000   1.0000   1.0000   1.0000   1.0000
     1.0000   1.0000   1.0000   1.0000   1.0000   1.0000   1.0000   1.0000
     1.0000   1.0000   1.0000   1.0000   1.0000   1.0000   1.0000   1.0000
     1.0000   1.0000   1.0000   1.0000   1.0000   1.0000   1.0000   1.0001
     1.0001   1.0001   1.0002   1.0005   1.0011   1.0024   1.0029   1.0040
     1.0055   1.0072   1.0151   1.0169   1.0224   1.0243   1.0283   1.0361
     1.0380   1.0411   1.0452   1.0480   1.0500   1.0534   1.0617   1.0659
     1.0769   1.0819   1.0822   1.0826   1.0533   0.9211   0.8828   0.8296
     0.5977   0.0000   0.0000   0.0000   0.0000   0.0000   0.0000   0.0000
     0.0000   0.0000   0.0000   0.0000   0.0000   0.0000   0.0000   0.0000
     0.0000   0.0000   0.0000   0.0000   0.0000   0.0000   0.0000   0.0000
     0.0000   0.0000   0.0000   0.0000   0.0000   0.0000   0.0000   0.0000
     0.0000   0.0000   0.0000   0.0000   0.0000   0.0000   0.0000   0.0000
     0.0000   0.0000   0.0000   0.0000   0.0000   0.0000   0.0000   0.0000
     0.0000   0.0000   0.0000   0.0000   0.0000   0.0000   0.0000   0.0000
     0.0000   0.0000   0.0000   0.0000   0.0000   0.0000   0.0000   0.0000
     0.0000   0.0000   0.0000   0.0000   0.0000   0.0000   0.0000   0.0000
     0.0000   0.0000   0.0000   0.0000   0.0000   0.0000   0.0000   0.0000
     0.0000   0.0000   0.0000   0.0000   0.0000   0.0000   0.0000   0.0000
     0.0000

          k = 0.0000-0.4095 0.2186 ( 69180 PWs)   bands (ev):

   -75.3587 -75.3374 -74.9452 -74.9418 -74.9402 -74.9349 -74.8966 -74.8953
   -74.8877 -74.8865 -74.8795 -74.8753 -74.8620 -74.8551 -74.8546 -74.8510
   -74.8506 -74.8502 -74.8499 -74.8486 -74.8476 -74.8464 -74.8458 -74.8452
   -74.8441 -74.8431 -74.8418 -74.8380 -74.8375 -74.8356 -74.8344 -41.4207
   -41.3978 -41.3940 -41.3676 -41.1691 -41.1607 -41.0193 -41.0119 -40.9827
   -40.9770 -40.9747 -40.9659 -40.9593 -40.9497 -40.9470 -40.9320 -40.9311
   -40.9306 -40.9303 -40.9299 -40.9289 -40.9283 -40.9261 -40.9257 -40.9250
   -40.9245 -40.9203 -40.9200 -40.9198 -40.9195 -40.9183 -40.9108 -40.9106
   -40.9101 -40.9095 -40.9028 -40.9022 -40.8809 -40.8728 -40.8548 -40.8476
   -40.8415 -40.8406 -40.8277 -40.8271 -40.8232 -40.8080 -40.8039 -40.8030
   -40.8020 -40.7984 -40.7949 -40.7910 -40.7905 -40.7899 -40.7897 -40.7873
   -40.7855 -40.7845 -40.7829 -40.7824 -40.7817 -40.7808 -40.7778 -40.7768
   -40.7759 -40.7756 -40.7749 -40.7728 -40.7712 -40.7702 -40.7681 -40.7673
   -40.7596 -40.7571 -40.7565 -40.7512 -40.7494 -40.7489 -40.7458 -40.7454
   -40.7428 -40.7392 -40.7379 -40.7371 -40.7342 -40.7336 -40.7319 -40.7305
   -40.7285 -40.7277 -40.7261 -40.7190  -4.1032  -4.0581  -3.9198  -3.8842
    -3.3142  -3.2666  -2.9679  -2.8955  -2.8585  -2.7610  -2.7341  -2.7167
    -2.6901  -2.6543  -2.6358  -2.6128  -2.5281  -2.5107  -2.4532  -2.4341
    -2.3939  -2.3765  -2.3509  -2.3372  -2.3105  -2.3033  -2.2847  -2.2602
    -2.2362  -2.2194  -2.1957  -2.1762  -1.1479  -0.9558  -0.9168  -0.8942
    -0.8851  -0.8478  -0.7922  -0.6536  -0.6221  -0.5266  -0.4806  -0.4329
    -0.3942  -0.3323  -0.2923  -0.1135  -0.0361   0.0495   0.0652   0.0667
     0.0846   0.1201   0.1656   0.2378   0.3195   0.3618   0.4240   0.4464
     0.4718   0.4939   0.6014   0.6744   4.6099   4.8646   4.9379   5.0657
     5.1486   5.2398   5.2589   5.2714   5.2767   5.2879   5.3106   5.3149
     5.3252   5.3315   5.3484   5.3511   5.3571   5.3653   5.3927   5.4098
     5.4370   5.4464   5.5635   5.6032   5.6161   5.6343   5.7754   5.8248
     5.8522   5.9296   5.9460   5.9763   6.0099   6.0407   6.2053   6.2293
     6.2381   6.2888   6.3071   6.3466   6.3675   6.3879   6.3920   6.4163
     6.5931   6.7157   6.7588   6.8518   6.8674   6.9332   6.9485   7.0083
     7.0730   7.1219   7.1332   7.1457   7.1654   7.1859   7.2994   7.4039
     7.4364   7.4420   7.4727   7.4801   7.4908   7.5016   7.5199   7.5334
     7.5405   7.5489   7.5831   7.6019   7.6633   7.6963   7.7281   7.7459
[...]
     atom   72 type  2   force =     0.00498353    0.00285736    0.00012188
     atom   73 type  1   force =    -0.00005571    0.00001311   -0.00001055
     atom   74 type  1   force =    -0.00001792   -0.00010992    0.00046370
     atom   75 type  2   force =     0.00492498   -0.00282750   -0.00000367
     atom   76 type  2   force =    -0.00477268    0.00306722   -0.00000358
     atom   77 type  2   force =    -0.00498788   -0.00303479   -0.00003875
     atom   78 type  2   force =     0.00530558    0.00325903    0.00027507
     atom   79 type  1   force =    -0.00018605    0.00003368   -0.00108493
     atom   80 type  1   force =     0.00101133   -0.00072888   -0.00208116
     atom   81 type  2   force =     0.00516149   -0.00256762    0.00030449
     atom   82 type  2   force =    -0.00517515    0.00317477    0.00024428
     atom   83 type  2   force =    -0.00486903   -0.00304706    0.00005412
     atom   84 type  2   force =     0.00654932    0.00390468    0.00000650
     atom   85 type  1   force =     0.00107757   -0.00069062    0.00206358
     atom   86 type  2   force =     0.00315979   -0.01183489    0.00003147
     atom   87 type  2   force =    -0.00489072    0.00333522    0.00001559
     atom   88 type  2   force =    -0.00488210   -0.00305724   -0.00003946
     atom   89 type  2   force =     0.00654481    0.00387491    0.00003729
     atom   90 type  1   force =     0.00004108   -0.00010324    0.00108816
     atom   91 type  1   force =     0.00000045   -0.00011752   -0.00050383
     atom   92 type  2   force =     0.00516389   -0.00258274   -0.00031562
     atom   93 type  2   force =    -0.00520724    0.00315309   -0.00026818
     atom   94 type  2   force =    -0.00497491   -0.00303068    0.00006479
     atom   95 type  2   force =     0.00532495    0.00326058   -0.00027430
     atom   96 type  3   force =     0.00000000    0.00000000    0.00000000
     The Hubbard contrib.    to forces
     atom    1 type  1   force =     0.00000000    0.00000000    0.00000000
     atom    2 type  1   force =     0.00000000    0.00000000    0.00000000
     atom    3 type  2   force =     0.00000000    0.00000000    0.00000000
     atom    4 type  2   force =     0.00000000    0.00000000    0.00000000
     atom    5 type  2   force =     0.00000000    0.00000000    0.00000000
     atom    6 type  2   force =     0.00000000    0.00000000    0.00000000
     atom    7 type  1   force =     0.00000000    0.00000000    0.00000000
     atom    8 type  1   force =     0.00000000    0.00000000    0.00000000
     atom    9 type  2   force =     0.00000000    0.00000000    0.00000000
     atom   10 type  2   force =     0.00000000    0.00000000    0.00000000
     atom   11 type  2   force =     0.00000000    0.00000000    0.00000000
     atom   12 type  2   force =     0.00000000    0.00000000    0.00000000
     atom   13 type  1   force =     0.00000000    0.00000000    0.00000000
     atom   14 type  1   force =     0.00000000    0.00000000    0.00000000
     atom   15 type  2   force =     0.00000000    0.00000000    0.00000000
     atom   16 type  2   force =     0.00000000    0.00000000    0.00000000
     atom   17 type  2   force =     0.00000000    0.00000000    0.00000000
     atom   18 type  2   force =     0.00000000    0.00000000    0.00000000
     atom   19 type  1   force =     0.00000000    0.00000000    0.00000000
     atom   20 type  1   force =     0.00000000    0.00000000    0.00000000
     atom   21 type  2   force =     0.00000000    0.00000000    0.00000000
     atom   22 type  2   force =     0.00000000    0.00000000    0.00000000
     atom   23 type  2   force =     0.00000000    0.00000000    0.00000000
     atom   24 type  2   force =     0.00000000    0.00000000    0.00000000
     atom   25 type  1   force =     0.00000000    0.00000000    0.00000000
     atom   26 type  1   force =     0.00000000    0.00000000    0.00000000
     atom   27 type  2   force =     0.00000000    0.00000000    0.00000000
     atom   28 type  2   force =     0.00000000    0.00000000    0.00000000
     atom   29 type  2   force =     0.00000000    0.00000000    0.00000000
     atom   30 type  2   force =     0.00000000    0.00000000    0.00000000
     atom   31 type  1   force =     0.00000000    0.00000000    0.00000000
     atom   32 type  1   force =     0.00000000    0.00000000    0.00000000
     atom   33 type  2   force =     0.00000000    0.00000000    0.00000000
     atom   34 type  2   force =     0.00000000    0.00000000    0.00000000
     atom   35 type  2   force =     0.00000000    0.00000000    0.00000000
     atom   36 type  2   force =     0.00000000    0.00000000    0.00000000
     atom   37 type  1   force =     0.00000000    0.00000000    0.00000000
     atom   38 type  1   force =     0.00000000    0.00000000    0.00000000
     atom   39 type  2   force =     0.00000000    0.00000000    0.00000000
     atom   40 type  2   force =     0.00000000    0.00000000    0.00000000
     atom   41 type  2   force =     0.00000000    0.00000000    0.00000000
     atom   42 type  2   force =     0.00000000    0.00000000    0.00000000
     atom   43 type  1   force =     0.00000000    0.00000000    0.00000000
     atom   44 type  1   force =     0.00000000    0.00000000    0.00000000
     atom   45 type  2   force =     0.00000000    0.00000000    0.00000000
     atom   46 type  2   force =     0.00000000    0.00000000    0.00000000
     atom   47 type  2   force =     0.00000000    0.00000000    0.00000000
     atom   48 type  2   force =     0.00000000    0.00000000    0.00000000
     atom   49 type  1   force =     0.00000000    0.00000000    0.00000000
     atom   50 type  1   force =     0.00000000    0.00000000    0.00000000
     atom   51 type  2   force =     0.00000000    0.00000000    0.00000000
     atom   52 type  2   force =     0.00000000    0.00000000    0.00000000
     atom   53 type  2   force =     0.00000000    0.00000000    0.00000000
     atom   54 type  2   force =     0.00000000    0.00000000    0.00000000
     atom   55 type  1   force =     0.00000000    0.00000000    0.00000000
     atom   56 type  1   force =     0.00000000    0.00000000    0.00000000
     atom   57 type  2   force =     0.00000000    0.00000000    0.00000000
     atom   58 type  2   force =     0.00000000    0.00000000    0.00000000
     atom   59 type  2   force =     0.00000000    0.00000000    0.00000000
     atom   60 type  2   force =     0.00000000    0.00000000    0.00000000
     atom   61 type  1   force =     0.00000000    0.00000000    0.00000000
     atom   62 type  1   force =     0.00000000    0.00000000    0.00000000
     atom   63 type  2   force =     0.00000000    0.00000000    0.00000000
     atom   64 type  2   force =     0.00000000    0.00000000    0.00000000
     atom   65 type  2   force =     0.00000000    0.00000000    0.00000000
     atom   66 type  2   force =     0.00000000    0.00000000    0.00000000
     atom   67 type  1   force =     0.00000000    0.00000000    0.00000000
     atom   68 type  1   force =     0.00000000    0.00000000    0.00000000
     atom   69 type  2   force =     0.00000000    0.00000000    0.00000000
     atom   70 type  2   force =     0.00000000    0.00000000    0.00000000
     atom   71 type  2   force =     0.00000000    0.00000000    0.00000000
     atom   72 type  2   force =     0.00000000    0.00000000    0.00000000
     atom   73 type  1   force =     0.00000000    0.00000000    0.00000000
     atom   74 type  1   force =     0.00000000    0.00000000    0.00000000
     atom   75 type  2   force =     0.00000000    0.00000000    0.00000000
     atom   76 type  2   force =     0.00000000    0.00000000    0.00000000
     atom   77 type  2   force =     0.00000000    0.00000000    0.00000000
     atom   78 type  2   force =     0.00000000    0.00000000    0.00000000
     atom   79 type  1   force =     0.00000000    0.00000000    0.00000000
     atom   80 type  1   force =     0.00000000    0.00000000    0.00000000
     atom   81 type  2   force =     0.00000000    0.00000000    0.00000000
     atom   82 type  2   force =     0.00000000    0.00000000    0.00000000
     atom   83 type  2   force =     0.00000000    0.00000000    0.00000000
     atom   84 type  2   force =     0.00000000    0.00000000    0.00000000
     atom   85 type  1   force =     0.00000000    0.00000000    0.00000000
     atom   86 type  2   force =     0.00000000    0.00000000    0.00000000
     atom   87 type  2   force =     0.00000000    0.00000000    0.00000000
     atom   88 type  2   force =     0.00000000    0.00000000    0.00000000
     atom   89 type  2   force =     0.00000000    0.00000000    0.00000000
     atom   90 type  1   force =     0.00000000    0.00000000    0.00000000
     atom   91 type  1   force =     0.00000000    0.00000000    0.00000000
     atom   92 type  2   force =     0.00000000    0.00000000    0.00000000
     atom   93 type  2   force =     0.00000000    0.00000000    0.00000000
     atom   94 type  2   force =     0.00000000    0.00000000    0.00000000
     atom   95 type  2   force =     0.00000000    0.00000000    0.00000000
     atom   96 type  3   force =     0.00000000    0.00000000    0.00000000
     The SCF correction term to forces
     atom    1 type  1   force =    -0.00001211   -0.00003707   -0.00003217
     atom    2 type  1   force =    -0.00002419   -0.00001186   -0.00014335
     atom    3 type  2   force =    -0.00000695   -0.00000602   -0.00001306
     atom    4 type  2   force =    -0.00000145   -0.00000485   -0.00001914
     atom    5 type  2   force =    -0.00001151    0.00000850   -0.00005658
     atom    6 type  2   force =    -0.00000620   -0.00001487   -0.00005332
     atom    7 type  1   force =    -0.00001594   -0.00003491   -0.00016440
     atom    8 type  1   force =     0.00008527   -0.00000876   -0.00003219
     atom    9 type  2   force =    -0.00000677   -0.00000746   -0.00006165
     atom   10 type  2   force =     0.00000055   -0.00001371   -0.00003700
     atom   11 type  2   force =     0.00002551    0.00001453   -0.00002754
     atom   12 type  2   force =     0.00000805   -0.00000311   -0.00002236
     atom   13 type  1   force =    -0.00001781   -0.00002561    0.00002908
     atom   14 type  1   force =     0.00009453    0.00000879    0.00009013
     atom   15 type  2   force =     0.00001047   -0.00000318    0.00001239
     atom   16 type  2   force =     0.00003819    0.00002586    0.00001764
     atom   17 type  2   force =     0.00003379    0.00001821    0.00004988
     atom   18 type  2   force =     0.00001000   -0.00000091    0.00004090
     atom   19 type  1   force =    -0.00001415   -0.00003187    0.00016623
     atom   20 type  1   force =    -0.00001263    0.00000456    0.00008555
     atom   21 type  2   force =    -0.00000461   -0.00000378    0.00006242
     atom   22 type  2   force =     0.00001044    0.00000743    0.00003795
     atom   23 type  2   force =    -0.00000320    0.00001132    0.00003354
     atom   24 type  2   force =    -0.00000514   -0.00001257    0.00003464
     atom   25 type  1   force =    -0.00001303    0.00003298   -0.00004097
     atom   26 type  1   force =    -0.00001953    0.00001463   -0.00013950
     atom   27 type  2   force =    -0.00000768    0.00001086   -0.00001484
     atom   28 type  2   force =    -0.00000025   -0.00000408   -0.00001510
     atom   29 type  2   force =    -0.00000615   -0.00000711   -0.00005254
     atom   30 type  2   force =    -0.00002296    0.00002242   -0.00006615
     atom   31 type  1   force =    -0.00000688    0.00002566   -0.00019965
     atom   32 type  1   force =     0.00003581   -0.00004383   -0.00009116
     atom   33 type  2   force =     0.00000435    0.00001645   -0.00005681
     atom   34 type  2   force =    -0.00000648   -0.00000558   -0.00004776
     atom   35 type  2   force =     0.00000263   -0.00000978   -0.00003885
     atom   36 type  2   force =     0.00001350    0.00002062    0.00000899
     atom   37 type  1   force =    -0.00001236    0.00002459    0.00004305
     atom   38 type  1   force =     0.00005217   -0.00006810    0.00014758
     atom   39 type  2   force =     0.00002545    0.00000921    0.00001374
     atom   40 type  2   force =     0.00001237   -0.00003117    0.00001403
     atom   41 type  2   force =     0.00000337   -0.00000984    0.00005575
     atom   42 type  2   force =     0.00002957    0.00001052    0.00002631
     atom   43 type  1   force =    -0.00000977    0.00002353    0.00019876
     atom   44 type  1   force =    -0.00000560   -0.00000647    0.00008452
     atom   45 type  2   force =     0.00000895    0.00000987    0.00005765
     atom   46 type  2   force =    -0.00000252   -0.00001579    0.00004871
     atom   47 type  2   force =    -0.00000504   -0.00000813    0.00003588
     atom   48 type  2   force =    -0.00000812    0.00001413    0.00002742
     atom   49 type  1   force =     0.00001007   -0.00003108   -0.00003380
     atom   50 type  1   force =     0.00002092   -0.00001291   -0.00013803
     atom   51 type  2   force =     0.00000632   -0.00000570   -0.00001482
     atom   52 type  2   force =     0.00000095   -0.00000087   -0.00001472
     atom   53 type  2   force =     0.00002821   -0.00000084   -0.00006531
     atom   54 type  2   force =     0.00000124   -0.00001447   -0.00005231
     atom   55 type  1   force =     0.00000966   -0.00002438   -0.00013808
     atom   56 type  1   force =    -0.00007255    0.00003425   -0.00004422
     atom   57 type  2   force =     0.00000957   -0.00000268   -0.00004340
     atom   58 type  2   force =    -0.00000951   -0.00000660   -0.00005694
     atom   59 type  2   force =    -0.00001229   -0.00000516    0.00002005
     atom   60 type  2   force =    -0.00000948   -0.00000697   -0.00003561
     atom   61 type  1   force =     0.00002415    0.00002115    0.00003251
     atom   62 type  1   force =    -0.00008558    0.00006030    0.00010226
     atom   63 type  2   force =    -0.00000954    0.00002821    0.00001396
     atom   64 type  2   force =    -0.00003985   -0.00000152    0.00001435
     atom   65 type  2   force =    -0.00002794    0.00000331    0.00001534
     atom   66 type  2   force =    -0.00001034   -0.00000585    0.00005229
     atom   67 type  1   force =     0.00000848   -0.00002291    0.00013944
     atom   68 type  1   force =     0.00000743    0.00000788    0.00008174
     atom   69 type  2   force =     0.00000568    0.00000790    0.00004408
     atom   70 type  2   force =    -0.00001404   -0.00000027    0.00005720
     atom   71 type  2   force =     0.00001332    0.00000720    0.00002652
     atom   72 type  2   force =     0.00000047   -0.00001299    0.00003538
     atom   73 type  1   force =     0.00001374    0.00003462   -0.00007486
     atom   74 type  1   force =     0.00002594    0.00001038   -0.00015462
     atom   75 type  2   force =     0.00000977    0.00001442   -0.00001921
     atom   76 type  2   force =    -0.00000059   -0.00000404   -0.00001307
     atom   77 type  2   force =     0.00001162   -0.00000715   -0.00005418
     atom   78 type  2   force =     0.00000543    0.00001358   -0.00005762
     atom   79 type  1   force =     0.00001651    0.00003144   -0.00004988
     atom   80 type  1   force =    -0.00005971    0.00001216   -0.00002548
     atom   81 type  2   force =     0.00000740    0.00001967   -0.00004049
     atom   82 type  2   force =     0.00000121    0.00000020   -0.00006445
     atom   83 type  2   force =     0.00000093   -0.00001118   -0.00002330
     atom   84 type  2   force =    -0.00003497    0.00000282   -0.00002435
     atom   85 type  1   force =    -0.00007446   -0.00000782    0.00008007
     atom   86 type  2   force =    -0.00000537   -0.00002775    0.00001886
     atom   87 type  2   force =    -0.00002039   -0.00000691    0.00001225
     atom   88 type  2   force =    -0.00000070   -0.00001324    0.00004139
     atom   89 type  2   force =    -0.00004333   -0.00000086    0.00004694
     atom   90 type  1   force =     0.00001665    0.00003052    0.00005562
     atom   91 type  1   force =     0.00001253   -0.00000727    0.00009846
     atom   92 type  2   force =    -0.00000210   -0.00000187    0.00004120
     atom   93 type  2   force =    -0.00000117   -0.00000368    0.00006520
     atom   94 type  2   force =     0.00001027   -0.00000917    0.00003592
     atom   95 type  2   force =    -0.00000281    0.00001064    0.00003437
     atom   96 type  3   force =     0.00000739    0.00000415    0.00000461

     Total force =     0.009535     Total SCF correction =     0.000751

     Writing all to output data dir /tmp/neb_canonical_marc_96at_qe_VFe/image_02/tmp/image_02.save/ :
     XML data file, charge density, pseudopotentials, collected wavefunctions
 
     init_run     :      8.08s CPU     13.29s WALL (       1 calls)
     electrons    :    343.24s CPU    449.00s WALL (       1 calls)
     forces       :      3.74s CPU      4.84s WALL (       1 calls)

     Called by init_run:
     wfcinit      :      5.65s CPU      8.78s WALL (       1 calls)
     wfcinit:atom :      0.15s CPU      0.16s WALL (      16 calls)
     wfcinit:wfcr :      4.59s CPU      4.83s WALL (      16 calls)
     potinit      :      0.12s CPU      0.26s WALL (       1 calls)
     hinit0       :      2.03s CPU      2.07s WALL (       1 calls)

     Called by electrons:
     c_bands      :    294.51s CPU    371.00s WALL (      20 calls)
     sum_band     :     43.10s CPU     68.40s WALL (      20 calls)
     v_of_rho     :      1.05s CPU      0.77s WALL (      21 calls)
     v_h          :      0.48s CPU      0.21s WALL (      21 calls)
     v_xc         :      0.59s CPU      0.59s WALL (      22 calls)
     mix_rho      :      3.84s CPU      8.01s WALL (      20 calls)

     Called by c_bands:
     init_us_2    :      3.73s CPU      4.13s WALL (     672 calls)
     cegterg      :    257.36s CPU    258.31s WALL (     320 calls)

     Called by sum_band:
     sum_band:wei :      0.25s CPU      0.26s WALL (      20 calls)
     sum_band:loo :     42.27s CPU     67.41s WALL (      20 calls)
     sum_band:buf :     15.17s CPU     40.29s WALL (     320 calls)
     sum_band:ini :      1.82s CPU      1.88s WALL (     320 calls)

     Called by *egterg:
     cdiaghg      :     35.49s CPU     36.36s WALL (    1525 calls)
                                       36.35s GPU  (    1525 calls)
     cegterg:over :     33.77s CPU     33.80s WALL (    1205 calls)
     cegterg:upda :     12.70s CPU     12.73s WALL (    1205 calls)
     cegterg:last :     16.63s CPU     16.64s WALL (     642 calls)
     h_psi        :    142.09s CPU    142.23s WALL (    1541 calls)
     g_psi        :      0.41s CPU      0.42s WALL (    1205 calls)

     Called by h_psi:
     h_psi:calbec :      0.10s CPU      0.14s WALL (    1541 calls)
     vloc_psi     :    113.06s CPU    112.92s WALL (    1541 calls)
                                      112.90s GPU  (    1541 calls)
     add_vuspsi   :     28.05s CPU     28.23s WALL (    1541 calls)

     General routines
     calbec       :      0.10s CPU      0.14s WALL (    1605 calls)
     fft          :      0.01s CPU      0.04s WALL (     414 calls)
                                        0.04s GPU  (     414 calls)
     ffts         :      0.01s CPU      0.05s WALL (     553 calls)
                                        0.05s GPU  (     553 calls)
     fftw         :      0.90s CPU    100.60s WALL (   62928 calls)
                                       99.97s GPU  (   62928 calls)
     davcio       :      1.26s CPU    107.52s WALL (    1382 calls)
 
     Parallel routines
 
     PWSCF        :   5m56.22s CPU   7m58.27s WALL

 
   This run was terminated on:  15:25: 9  29May2026            

=------------------------------------------------------------------------------=
   JOB DONE.
=------------------------------------------------------------------------------=
