
     Program PWSCF v.7.5 starts on 29May2026 at 13:54:40 

     This program is part of the open-source Quantum ESPRESSO suite
     for quantum simulation of materials; please cite
         "P. Giannozzi et al., J. Phys.:Condens. Matter 21 395502 (2009);
         "P. Giannozzi et al., J. Phys.:Condens. Matter 29 465901 (2017);
         "P. Giannozzi et al., J. Chem. Phys. 152 154105 (2020);
          URL http://www.quantum-espresso.org", 
     in publications or presentations arising from this work. More details at
     http://www.quantum-espresso.org/quote

     Parallel version (MPI & OpenMP), running on       8 processor cores
     Number of MPI processes:                 1
     Threads/MPI process:                     8

     MPI processes distributed on     1 nodes
     195067 MiB available memory on the printing compute node when the environment starts
 
     Reading input from espresso.pwi
Warning: card &CELL ignored
Warning: card &FCP ignored
Warning: card &RISM ignored

     Current dimensions of program PWSCF are:
     Max number of different atomic species (ntypx) = 10
     Max number of k-points (npk) =  40000
     Max angular momentum in pseudopotentials (lmaxx) =  4
 
     Subspace diagonalization in iterative solution of the eigenvalue problem:
     a serial algorithm will be used

 
     G-vector sticks info
     --------------------
     sticks:   dense  smooth     PW     G-vecs:    dense   smooth      PW
     Sum        6591    6591   1755               553421   553421   76211
 
     Using Slab Decomposition
 


     bravais-lattice index     =            0
     lattice parameter (alat)  =      16.7921  a.u.
     unit-cell volume          =    8814.7061 (a.u.)^3
     number of atoms/cell      =           96
     number of atomic types    =            3
     number of electrons       =       881.00
     number of Kohn-Sham states=          529
     kinetic-energy cutoff     =      60.0000  Ry
     charge density cutoff     =     240.0000  Ry
     scf convergence threshold =      1.0E-07
     mixing beta               =       0.2000
     number of iterations used =           12  local-TF  mixing
     Exchange-correlation= PBE
                           (   1   4   3   4   0   0   0)

     GPU acceleration is ACTIVE.  1 visible GPUs per MPI rank


     GPU used by master process:

        Device Number: 0
        Device name: NVIDIA A100-SXM4-40GB
        Compute capability : 80
        Ratio of single to double precision performance  : 2
        Memory Clock Rate (KHz): 1215000
        Memory Bus Width (bits): 5120
        Peak Memory Bandwidth (GB/s): ******

     celldm(1)=  16.792106  celldm(2)=   0.000000  celldm(3)=   0.000000
     celldm(4)=   0.000000  celldm(5)=   0.000000  celldm(6)=   0.000000

     crystal axes: (cart. coord. in units of alat)
               a(1) = (   1.000000   0.000000   0.000000 )  
               a(2) = (   0.000000   1.221022   0.000000 )  
               a(3) = (   0.000000   0.000000   1.524646 )  

     reciprocal axes: (cart. coord. in units 2 pi/alat)
               b(1) = (  1.000000  0.000000  0.000000 )  
               b(2) = (  0.000000  0.818986  0.000000 )  
               b(3) = (  0.000000  0.000000  0.655890 )  


     PseudoPot. # 1 for Fe read from file:
     /opt/pp/oncv_pbe/Fe.upf
     MD5 check sum: a5f07f5dca5be6cacb81ceb54992e4ae
     Pseudo is Norm-conserving + core correction, Zval = 16.0
     Generated using ONCVPSP code by D. R. Hamann
     Using radial grid of 1426 points,  6 beta functions with: 
                l(1) =   0
                l(2) =   0
                l(3) =   1
                l(4) =   1
                l(5) =   2
                l(6) =   2

     PseudoPot. # 2 for S  read from file:
     /opt/pp/oncv_pbe/S.upf
     MD5 check sum: 6027e7704d67ae28863b2247926ce6f3
     Pseudo is Norm-conserving + core correction, Zval =  6.0
     Generated using ONCVPSP code by D. R. Hamann
     Using radial grid of 1146 points,  6 beta functions with: 
                l(1) =   0
                l(2) =   0
                l(3) =   1
                l(4) =   1
                l(5) =   2
                l(6) =   2

     PseudoPot. # 3 for H  read from file:
     /opt/pp/oncv_pbe/H.upf
     MD5 check sum: e96aa7e3e4a958db16958554ea960e2a
     Pseudo is Norm-conserving, Zval =  1.0
     Generated using ONCVPSP code by D. R. Hamann
     Using radial grid of 1166 points,  3 beta functions with: 
                l(1) =   0
                l(2) =   0
                l(3) =   1

     atomic species   valence    mass     pseudopotential
     Fe               16.00    55.84500     Fe( 1.00)
     S                 6.00    32.06000     S ( 1.00)
     H                 1.00     1.00800     H ( 1.00)

     Starting magnetic structure 
     atomic species   magnetization
     Fe              0.065
     S               0.000
     H               0.000

     No symmetry found


                                    s                        frac. trans.

      isym =  1     identity                                     

 cryst.   s( 1) = (     1          0          0      )
                  (     0          1          0      )
                  (     0          0          1      )

 cart.    s( 1) = (  1.0000000  0.0000000  0.0000000 )
                  (  0.0000000  1.0000000  0.0000000 )
                  (  0.0000000  0.0000000  1.0000000 )


   Cartesian axes

     site n.     atom                  positions (alat units)
         1        Fe     tau(   1) = (   0.0005659   0.0002685   0.0002847  )
         2        Fe     tau(   2) = (   0.2511832   0.3052293   0.1903435  )
         3        S      tau(   3) = (   0.1050495   0.2289728  -0.0001470  )
         4        S      tau(   4) = (   0.3968963   0.3818534   0.0000727  )
         5        S      tau(   5) = (   0.1471582   0.5335592   0.1905746  )
         6        S      tau(   6) = (   0.3545771   0.0763874   0.1907242  )
         7        Fe     tau(   7) = (   0.0007491  -0.0007683   0.3812291  )
         8        Fe     tau(   8) = (   0.2485324   0.3036343   0.5702882  )
         9        S      tau(   9) = (   0.1036565   0.2274596   0.3793383  )
        10        S      tau(  10) = (   0.3974499   0.3799261   0.3814099  )
        11        S      tau(  11) = (   0.1433317   0.5340779   0.5692451  )
        12        S      tau(  12) = (   0.3540662   0.0759012   0.5714279  )
        13        Fe     tau(  13) = (   0.0006448  -0.0001371   0.7627829  )
        14        Fe     tau(  14) = (   0.2496670   0.3072228   0.9534373  )
        15        S      tau(  15) = (   0.1027789   0.2285673   0.7625928  )
        16        S      tau(  16) = (   0.3891546   0.3802543   0.7581022  )
        17        S      tau(  17) = (   0.1466122   0.5380419   0.9554289  )
        18        S      tau(  18) = (   0.3543276   0.0784102   0.9532410  )
        19        Fe     tau(  19) = (   0.0008706   0.0011751   1.1439309  )
        20        Fe     tau(  20) = (   0.2512474   0.3061440   1.3337566  )
        21        S      tau(  21) = (   0.1046161   0.2291823   1.1442314  )
        22        S      tau(  22) = (   0.3973639   0.3823053   1.1424861  )
        23        S      tau(  23) = (   0.1471866   0.5342072   1.3343146  )
        24        S      tau(  24) = (   0.3546946   0.0774349   1.3346050  )
        25        Fe     tau(  25) = (   0.0006489   0.6108815   0.0002850  )
        26        Fe     tau(  26) = (   0.2506991   0.9157371   0.1914920  )
        27        S      tau(  27) = (   0.1044552   0.8395808   0.0007860  )
        28        S      tau(  28) = (   0.3966058   0.9927915   0.0008908  )
        29        S      tau(  29) = (   0.1467637   1.1443028   0.1905231  )
        30        S      tau(  30) = (   0.3541814   0.6870717   0.1913270  )
        31        Fe     tau(  31) = (   0.0004863   0.6104664   0.3792235  )
        32        Fe     tau(  32) = (   0.2501299   0.9147284   0.5730721  )
        33        S      tau(  33) = (   0.1035356   0.8393531   0.3813942  )
        34        S      tau(  34) = (   0.3961969   0.9917147   0.3820641  )
        35        S      tau(  35) = (   0.1468505   1.1434203   0.5723217  )
        36        S      tau(  36) = (   0.3476088   0.6829661   0.5685437  )
        37        Fe     tau(  37) = (  -0.0000072   0.6108133   0.7627240  )
        38        Fe     tau(  38) = (   0.2484489   0.9176921   0.9563453  )
        39        S      tau(  39) = (   0.1030050   0.8400215   0.7637826  )
        40        S      tau(  40) = (   0.4002817   0.9917601   0.7643062  )
        41        S      tau(  41) = (   0.1464959   1.1458861   0.9533300  )
        42        S      tau(  42) = (   0.3453047   0.6911152   0.9613673  )
        43        Fe     tau(  43) = (   0.0002796   0.6117479   1.1464285  )
        44        Fe     tau(  44) = (   0.2505923   0.9167096   1.3350193  )
        45        S      tau(  45) = (   0.1020177   0.8415866   1.1458293  )
        46        S      tau(  46) = (   0.3958177   0.9942184   1.1449183  )
        47        S      tau(  47) = (   0.1467616   1.1453828   1.3349542  )
        48        S      tau(  48) = (   0.3541095   0.6881688   1.3352705  )
        49        Fe     tau(  49) = (   0.5006423   0.0003079   0.0003432  )
        50        Fe     tau(  50) = (   0.7506106   0.3050524   0.1905520  )
        51        S      tau(  51) = (   0.6046414   0.2289615   0.0000317  )
        52        S      tau(  52) = (   0.8967218   0.3819704   0.0001261  )
        53        S      tau(  53) = (   0.6470774   0.5336893   0.1904005  )
        54        S      tau(  54) = (   0.8545028   0.0762204   0.1905179  )
        55        Fe     tau(  55) = (   0.5005288  -0.0003485   0.3813874  )
        56        Fe     tau(  56) = (   0.7533344   0.3044819   0.5702282  )
        57        S      tau(  57) = (   0.6050510   0.2277288   0.3808343  )
        58        S      tau(  58) = (   0.8988076   0.3803737   0.3788583  )
        59        S      tau(  59) = (   0.6565581   0.5316191   0.5642621  )
        60        S      tau(  60) = (   0.8552668   0.0756538   0.5715122  )
        61        Fe     tau(  61) = (   0.5009422   0.0038332   0.7626753  )
        62        Fe     tau(  62) = (   0.7526445   0.3059704   0.9543993  )
        63        S      tau(  63) = (   0.6079364   0.2306737   0.7615459  )
        64        S      tau(  64) = (   0.8984225   0.3817676   0.7625071  )
        65        S      tau(  65) = (   0.6559132   0.5329888   0.9600927  )
        66        S      tau(  66) = (   0.8549374   0.0768072   0.9534630  )
        67        Fe     tau(  67) = (   0.5004864   0.0014051   1.1440041  )
        68        Fe     tau(  68) = (   0.7506832   0.3058444   1.3339326  )
        69        S      tau(  69) = (   0.6049263   0.2292509   1.1438552  )
        70        S      tau(  70) = (   0.8991672   0.3818997   1.1453753  )
        71        S      tau(  71) = (   0.6471427   0.5344026   1.3348636  )
        72        S      tau(  72) = (   0.8546524   0.0772044   1.3347278  )
        73        Fe     tau(  73) = (   0.5007433   0.6109029   0.0003425  )
        74        Fe     tau(  74) = (   0.7500729   0.9157080   0.1916720  )
        75        S      tau(  75) = (   0.6043666   0.8400135   0.0005929  )
        76        S      tau(  76) = (   0.8961229   0.9927451   0.0006102  )
        77        S      tau(  77) = (   0.6465698   1.1443806   0.1909874  )
        78        S      tau(  78) = (   0.8539383   0.6877351   0.1909367  )
        79        Fe     tau(  79) = (   0.5014563   0.6092786   0.3851323  )
        80        Fe     tau(  80) = (   0.7493939   0.9169534   0.5720367  )
        81        S      tau(  81) = (   0.6032887   0.8396313   0.3826369  )
        82        S      tau(  82) = (   0.8971980   0.9926433   0.3814371  )
        83        S      tau(  83) = (   0.6468912   1.1457228   0.5716196  )
        84        S      tau(  84) = (   0.8523358   0.6851132   0.5713223  )
        85        Fe     tau(  85) = (   0.7495120   0.9178802   0.9540173  )
        86        S      tau(  86) = (   0.6043963   0.8462680   0.7637367  )
        87        S      tau(  87) = (   0.8966263   0.9924135   0.7628499  )
        88        S      tau(  88) = (   0.6469997   1.1468231   0.9539158  )
        89        S      tau(  89) = (   0.8526272   0.6856894   0.9547621  )
        90        Fe     tau(  90) = (   0.5005130   0.6115796   1.1390998  )
        91        Fe     tau(  91) = (   0.7497807   0.9165225   1.3342866  )
        92        S      tau(  92) = (   0.6030592   0.8415090   1.1429597  )
        93        S      tau(  93) = (   0.8972028   0.9941008   1.1448585  )
        94        S      tau(  94) = (   0.6465025   1.1452742   1.3344504  )
        95        S      tau(  95) = (   0.8536722   0.6884561   1.3346048  )
        96        H      tau(  96) = (   0.4008074   0.5548590   0.7066154  )

   Crystallographic axes

     site n.     atom                  positions (cryst. coord.)
         1        Fe     tau(   1) = (  0.0005659  0.0002199  0.0001867  )
         2        Fe     tau(   2) = (  0.2511832  0.2499786  0.1248444  )
         3        S      tau(   3) = (  0.1050495  0.1875256 -0.0000964  )
         4        S      tau(   4) = (  0.3968963  0.3127326  0.0000477  )
         5        S      tau(   5) = (  0.1471582  0.4369776  0.1249960  )
         6        S      tau(   6) = (  0.3545771  0.0625602  0.1250941  )
         7        Fe     tau(   7) = (  0.0007491 -0.0006292  0.2500444  )
         8        Fe     tau(   8) = (  0.2485324  0.2486723  0.3740464  )
         9        S      tau(   9) = (  0.1036565  0.1862863  0.2488043  )
        10        S      tau(  10) = (  0.3974499  0.3111542  0.2501630  )
        11        S      tau(  11) = (  0.1433317  0.4374024  0.3733622  )
        12        S      tau(  12) = (  0.3540662  0.0621620  0.3747939  )
        13        Fe     tau(  13) = (  0.0006448 -0.0001123  0.5003018  )
        14        Fe     tau(  14) = (  0.2496670  0.2516112  0.6253501  )
        15        S      tau(  15) = (  0.1027789  0.1871935  0.5001771  )
        16        S      tau(  16) = (  0.3891546  0.3114230  0.4972318  )
        17        S      tau(  17) = (  0.1466122  0.4406489  0.6266564  )
        18        S      tau(  18) = (  0.3543276  0.0642169  0.6252214  )
        19        Fe     tau(  19) = (  0.0008706  0.0009624  0.7502930  )
        20        Fe     tau(  20) = (  0.2512474  0.2507277  0.8747979  )
        21        S      tau(  21) = (  0.1046161  0.1876971  0.7504901  )
        22        S      tau(  22) = (  0.3973639  0.3131028  0.7493454  )
        23        S      tau(  23) = (  0.1471866  0.4375083  0.8751638  )
        24        S      tau(  24) = (  0.3546946  0.0634181  0.8753543  )
        25        Fe     tau(  25) = (  0.0006489  0.5003035  0.0001870  )
        26        Fe     tau(  26) = (  0.2506991  0.7499761  0.1255977  )
        27        S      tau(  27) = (  0.1044552  0.6876051  0.0005155  )
        28        S      tau(  28) = (  0.3966058  0.8130826  0.0005842  )
        29        S      tau(  29) = (  0.1467637  0.9371682  0.1249623  )
        30        S      tau(  30) = (  0.3541814  0.5627022  0.1254895  )
        31        Fe     tau(  31) = (  0.0004863  0.4999636  0.2487290  )
        32        Fe     tau(  32) = (  0.2501299  0.7491499  0.3758723  )
        33        S      tau(  33) = (  0.1035356  0.6874186  0.2501527  )
        34        S      tau(  34) = (  0.3961969  0.8122006  0.2505921  )
        35        S      tau(  35) = (  0.1468505  0.9364454  0.3753802  )
        36        S      tau(  36) = (  0.3476088  0.5593398  0.3729022  )
        37        Fe     tau(  37) = ( -0.0000072  0.5002476  0.5002632  )
        38        Fe     tau(  38) = (  0.2484489  0.7515772  0.6272575  )
        39        S      tau(  39) = (  0.1030050  0.6879660  0.5009575  )
        40        S      tau(  40) = (  0.4002817  0.8122378  0.5013009  )
        41        S      tau(  41) = (  0.1464959  0.9384649  0.6252798  )
        42        S      tau(  42) = (  0.3453047  0.5660138  0.6305514  )
        43        Fe     tau(  43) = (  0.0002796  0.5010131  0.7519312  )
        44        Fe     tau(  44) = (  0.2505923  0.7507725  0.8756261  )
        45        S      tau(  45) = (  0.1020177  0.6892478  0.7515381  )
        46        S      tau(  46) = (  0.3958177  0.8142511  0.7509406  )
        47        S      tau(  47) = (  0.1467616  0.9380527  0.8755834  )
        48        S      tau(  48) = (  0.3541095  0.5636007  0.8757908  )
        49        Fe     tau(  49) = (  0.5006423  0.0002522  0.0002251  )
        50        Fe     tau(  50) = (  0.7506106  0.2498337  0.1249812  )
        51        S      tau(  51) = (  0.6046414  0.1875163  0.0000208  )
        52        S      tau(  52) = (  0.8967218  0.3128285  0.0000827  )
        53        S      tau(  53) = (  0.6470774  0.4370842  0.1248818  )
        54        S      tau(  54) = (  0.8545028  0.0624234  0.1249588  )
        55        Fe     tau(  55) = (  0.5005288 -0.0002854  0.2501482  )
        56        Fe     tau(  56) = (  0.7533344  0.2493665  0.3740071  )
        57        S      tau(  57) = (  0.6050510  0.1865067  0.2497855  )
        58        S      tau(  58) = (  0.8988076  0.3115208  0.2484895  )
        59        S      tau(  59) = (  0.6565581  0.4353887  0.3700939  )
        60        S      tau(  60) = (  0.8552668  0.0619594  0.3748493  )
        61        Fe     tau(  61) = (  0.5009422  0.0031393  0.5002312  )
        62        Fe     tau(  62) = (  0.7526445  0.2505855  0.6259811  )
        63        S      tau(  63) = (  0.6079364  0.1889186  0.4994905  )
        64        S      tau(  64) = (  0.8984225  0.3126624  0.5001209  )
        65        S      tau(  65) = (  0.6559132  0.4365105  0.6297154  )
        66        S      tau(  66) = (  0.8549374  0.0629041  0.6253670  )
        67        Fe     tau(  67) = (  0.5004864  0.0011508  0.7503410  )
        68        Fe     tau(  68) = (  0.7506832  0.2504823  0.8749132  )
        69        S      tau(  69) = (  0.6049263  0.1877533  0.7502434  )
        70        S      tau(  70) = (  0.8991672  0.3127706  0.7512404  )
        71        S      tau(  71) = (  0.6471427  0.4376683  0.8755239  )
        72        S      tau(  72) = (  0.8546524  0.0632293  0.8754348  )
        73        Fe     tau(  73) = (  0.5007433  0.5003210  0.0002247  )
        74        Fe     tau(  74) = (  0.7500729  0.7499522  0.1257158  )
        75        S      tau(  75) = (  0.6043666  0.6879594  0.0003889  )
        76        S      tau(  76) = (  0.8961229  0.8130445  0.0004002  )
        77        S      tau(  77) = (  0.6465698  0.9372319  0.1252668  )
        78        S      tau(  78) = (  0.8539383  0.5632456  0.1252335  )
        79        Fe     tau(  79) = (  0.5014563  0.4989908  0.2526045  )
        80        Fe     tau(  80) = (  0.7493939  0.7509722  0.3751933  )
        81        S      tau(  81) = (  0.6032887  0.6876464  0.2509678  )
        82        S      tau(  82) = (  0.8971980  0.8129611  0.2501808  )
        83        S      tau(  83) = (  0.6468912  0.9383311  0.3749197  )
        84        S      tau(  84) = (  0.8523358  0.5610982  0.3747247  )
        85        Fe     tau(  85) = (  0.7495120  0.7517312  0.6257306  )
        86        S      tau(  86) = (  0.6043963  0.6930818  0.5009274  )
        87        S      tau(  87) = (  0.8966263  0.8127730  0.5003457  )
        88        S      tau(  88) = (  0.6469997  0.9392322  0.6256640  )
        89        S      tau(  89) = (  0.8526272  0.5615702  0.6262191  )
        90        Fe     tau(  90) = (  0.5005130  0.5008752  0.7471244  )
        91        Fe     tau(  91) = (  0.7497807  0.7506193  0.8751455  )
        92        S      tau(  92) = (  0.6030592  0.6891842  0.7496560  )
        93        S      tau(  93) = (  0.8972028  0.8141548  0.7509014  )
        94        S      tau(  94) = (  0.6465025  0.9379637  0.8752529  )
        95        S      tau(  95) = (  0.8536722  0.5638360  0.8753542  )
        96        H      tau(  96) = (  0.4008074  0.4544219  0.4634621  )

     number of k points=     8  Marzari-Vanderbilt smearing, width (Ry)=  0.0150
                       cart. coord. in units 2pi/alat
        k(    1) = (   0.0000000   0.0000000   0.0000000), wk =   0.0833333
        k(    2) = (   0.0000000   0.0000000   0.2186301), wk =   0.1666667
        k(    3) = (   0.0000000  -0.4094931   0.0000000), wk =   0.0833333
        k(    4) = (   0.0000000  -0.4094931   0.2186301), wk =   0.1666667
        k(    5) = (  -0.5000000   0.0000000   0.0000000), wk =   0.0833333
        k(    6) = (  -0.5000000   0.0000000   0.2186301), wk =   0.1666667
        k(    7) = (  -0.5000000  -0.4094931   0.0000000), wk =   0.0833333
        k(    8) = (  -0.5000000  -0.4094931   0.2186301), wk =   0.1666667

                       cryst. coord.
        k(    1) = (   0.0000000   0.0000000   0.0000000), wk =   0.0833333
        k(    2) = (   0.0000000   0.0000000   0.3333333), wk =   0.1666667
        k(    3) = (   0.0000000  -0.5000000   0.0000000), wk =   0.0833333
        k(    4) = (   0.0000000  -0.5000000   0.3333333), wk =   0.1666667
        k(    5) = (  -0.5000000   0.0000000   0.0000000), wk =   0.0833333
        k(    6) = (  -0.5000000   0.0000000   0.3333333), wk =   0.1666667
        k(    7) = (  -0.5000000  -0.5000000   0.0000000), wk =   0.0833333
        k(    8) = (  -0.5000000  -0.5000000   0.3333333), wk =   0.1666667

     Dense  grid:   553421 G-vectors     FFT dimensions: (  90, 108, 128)

     Dynamical RAM for                 wfc:     558.42 MB

     Dynamical RAM for     wfc (w. buffer):     558.42 MB

     Dynamical RAM for           str. fact:      25.33 MB

     Dynamical RAM for           local pot:       0.00 MB

     Dynamical RAM for          nlocal pot:    1810.39 MB

     Dynamical RAM for                qrad:       3.73 MB

     Dynamical RAM for          rho,v,vnew:     107.62 MB

     Dynamical RAM for               rhoin:      35.87 MB

     Dynamical RAM for           G-vectors:      35.89 MB

     Dynamical RAM for          h,s,v(r/c):      51.24 MB

     Dynamical RAM for          <psi|beta>:      13.84 MB

     Dynamical RAM for                 psi:    1116.84 MB

     Dynamical RAM for                hpsi:    1116.84 MB

     Dynamical RAM for      wfcinit/wfcrot:    1123.25 MB

     Estimated static dynamical RAM per process >       2.61 GB

     Estimated max dynamical RAM per process >       4.85 GB
     Generating pointlists ...
     new r_m :   0.1017 (alat units)  1.7072 (a.u.) for type    1
     new r_m :   0.0752 (alat units)  1.2635 (a.u.) for type    2
     new r_m :   0.0752 (alat units)  1.2635 (a.u.) for type    3

     Initial potential from superposition of free atoms

     starting charge     880.9860, renormalised to     881.0000
     Starting wfcs are  567 randomized atomic wfcs

     total cpu time spent up to now is       13.3 secs

     per-process dynamical memory:  1150.2 Mb

     Self-consistent Calculation
[tb_dev] Currently allocated     3.10E+01 Mbytes, locked:    0 /   3
[tb_pin] Currently allocated     0.00E+00 Mbytes, locked:    0 /   0

     iteration #  1     ecut=    60.00 Ry     beta= 0.20
     Davidson diagonalization with overlap

---- Real-time Memory Report at c_bands before calling an iterative solver
          3224 MiB given to the printing process from OS
          1157 MiB allocation reported by mallinfo(arena+hblkhd)
        192108 MiB available memory on the node where the printing process lives
     GPU memory used/free/total (MiB): 5716 / 34725 / 40442
------------------
     ethr =  1.00E-02,  avg # of iterations =  2.0

     total cpu time spent up to now is       35.7 secs

     total energy              =   -9183.17206141 Ry
     estimated scf accuracy    <      16.54762561 Ry

     total magnetization       =     1.78 Bohr mag/cell
     absolute magnetization    =    13.25 Bohr mag/cell
[tb_dev] Currently allocated     0.00E+00 Mbytes, locked:    0 /   0
[tb_pin] Currently allocated     0.00E+00 Mbytes, locked:    0 /   0

     iteration #  2     ecut=    60.00 Ry     beta= 0.20
     Davidson diagonalization with overlap

---- Real-time Memory Report at c_bands before calling an iterative solver
          3258 MiB given to the printing process from OS
          1157 MiB allocation reported by mallinfo(arena+hblkhd)
        192193 MiB available memory on the node where the printing process lives
     GPU memory used/free/total (MiB): 8500 / 31941 / 40442
------------------
     ethr =  1.88E-03,  avg # of iterations =  2.0

     total cpu time spent up to now is       56.5 secs

     total energy              =   -9183.31830537 Ry
     estimated scf accuracy    <       5.83404722 Ry

     total magnetization       =     1.30 Bohr mag/cell
     absolute magnetization    =    12.52 Bohr mag/cell
[tb_dev] Currently allocated     0.00E+00 Mbytes, locked:    0 /   0
[tb_pin] Currently allocated     0.00E+00 Mbytes, locked:    0 /   0

     iteration #  3     ecut=    60.00 Ry     beta= 0.20
     Davidson diagonalization with overlap

---- Real-time Memory Report at c_bands before calling an iterative solver
          3293 MiB given to the printing process from OS
          1157 MiB allocation reported by mallinfo(arena+hblkhd)
        192082 MiB available memory on the node where the printing process lives
     GPU memory used/free/total (MiB): 8506 / 31935 / 40442
------------------
     ethr =  6.62E-04,  avg # of iterations =  2.0

     total cpu time spent up to now is       76.5 secs

     total energy              =   -9183.33094502 Ry
     estimated scf accuracy    <       1.61967443 Ry

     total magnetization       =     1.34 Bohr mag/cell
     absolute magnetization    =    10.34 Bohr mag/cell
[tb_dev] Currently allocated     0.00E+00 Mbytes, locked:    0 /   0
[tb_pin] Currently allocated     0.00E+00 Mbytes, locked:    0 /   0

     iteration #  4     ecut=    60.00 Ry     beta= 0.20
     Davidson diagonalization with overlap

---- Real-time Memory Report at c_bands before calling an iterative solver
          3343 MiB given to the printing process from OS
          1230 MiB allocation reported by mallinfo(arena+hblkhd)
        191956 MiB available memory on the node where the printing process lives
     GPU memory used/free/total (MiB): 8506 / 31935 / 40442
------------------
     ethr =  1.84E-04,  avg # of iterations =  4.5

     total cpu time spent up to now is       98.3 secs

     total energy              =   -9183.46375290 Ry
     estimated scf accuracy    <       0.17981372 Ry

     total magnetization       =     1.90 Bohr mag/cell
     absolute magnetization    =     6.28 Bohr mag/cell
[tb_dev] Currently allocated     0.00E+00 Mbytes, locked:    0 /   0
[tb_pin] Currently allocated     0.00E+00 Mbytes, locked:    0 /   0

     iteration #  5     ecut=    60.00 Ry     beta= 0.20
     Davidson diagonalization with overlap

---- Real-time Memory Report at c_bands before calling an iterative solver
          3401 MiB given to the printing process from OS
          1230 MiB allocation reported by mallinfo(arena+hblkhd)
        191914 MiB available memory on the node where the printing process lives
     GPU memory used/free/total (MiB): 8506 / 31935 / 40442
------------------
     ethr =  2.04E-05,  avg # of iterations =  8.2
     Minimization algorithm failed to find Fermi energy: reverting to bisection
     Possible cause: smearing is larger than the electronic band-gap.

     total cpu time spent up to now is      125.5 secs

     total energy              =   -9183.49043223 Ry
     estimated scf accuracy    <       0.05312055 Ry

     total magnetization       =     1.68 Bohr mag/cell
     absolute magnetization    =     4.93 Bohr mag/cell
[tb_dev] Currently allocated     0.00E+00 Mbytes, locked:    0 /   0
[tb_pin] Currently allocated     0.00E+00 Mbytes, locked:    0 /   0

     iteration #  6     ecut=    60.00 Ry     beta= 0.20
     Davidson diagonalization with overlap

---- Real-time Memory Report at c_bands before calling an iterative solver
          3435 MiB given to the printing process from OS
          1230 MiB allocation reported by mallinfo(arena+hblkhd)
        191867 MiB available memory on the node where the printing process lives
     GPU memory used/free/total (MiB): 8506 / 31935 / 40442
------------------
     ethr =  6.03E-06,  avg # of iterations =  2.0

     total cpu time spent up to now is      145.6 secs

     total energy              =   -9183.49598931 Ry
     estimated scf accuracy    <       0.02173723 Ry

     total magnetization       =     1.58 Bohr mag/cell
     absolute magnetization    =     4.10 Bohr mag/cell
[tb_dev] Currently allocated     0.00E+00 Mbytes, locked:    0 /   0
[tb_pin] Currently allocated     0.00E+00 Mbytes, locked:    0 /   0

     iteration #  7     ecut=    60.00 Ry     beta= 0.20
     Davidson diagonalization with overlap

---- Real-time Memory Report at c_bands before calling an iterative solver
          3469 MiB given to the printing process from OS
          1230 MiB allocation reported by mallinfo(arena+hblkhd)
        191861 MiB available memory on the node where the printing process lives
     GPU memory used/free/total (MiB): 8506 / 31935 / 40442
------------------
     ethr =  2.47E-06,  avg # of iterations =  2.2
     Minimization algorithm failed to find Fermi energy: reverting to bisection
     Possible cause: smearing is larger than the electronic band-gap.

     total cpu time spent up to now is      165.7 secs

     total energy              =   -9183.49710063 Ry
     estimated scf accuracy    <       0.00732742 Ry

     total magnetization       =     1.51 Bohr mag/cell
     absolute magnetization    =     3.36 Bohr mag/cell
[tb_dev] Currently allocated     0.00E+00 Mbytes, locked:    0 /   0
[tb_pin] Currently allocated     0.00E+00 Mbytes, locked:    0 /   0

     iteration #  8     ecut=    60.00 Ry     beta= 0.20
     Davidson diagonalization with overlap

---- Real-time Memory Report at c_bands before calling an iterative solver
          3503 MiB given to the printing process from OS
          1230 MiB allocation reported by mallinfo(arena+hblkhd)
        191733 MiB available memory on the node where the printing process lives
     GPU memory used/free/total (MiB): 8506 / 31935 / 40442
------------------
     ethr =  8.32E-07,  avg # of iterations =  3.1

     total cpu time spent up to now is      187.3 secs

     total energy              =   -9183.49851943 Ry
     estimated scf accuracy    <       0.00068852 Ry

     total magnetization       =     1.50 Bohr mag/cell
     absolute magnetization    =     2.58 Bohr mag/cell
[tb_dev] Currently allocated     0.00E+00 Mbytes, locked:    0 /   0
[tb_pin] Currently allocated     0.00E+00 Mbytes, locked:    0 /   0

     iteration #  9     ecut=    60.00 Ry     beta= 0.20
     Davidson diagonalization with overlap

---- Real-time Memory Report at c_bands before calling an iterative solver
          3536 MiB given to the printing process from OS
          1230 MiB allocation reported by mallinfo(arena+hblkhd)
        191789 MiB available memory on the node where the printing process lives
     GPU memory used/free/total (MiB): 8536 / 31905 / 40442
------------------
     ethr =  7.82E-08,  avg # of iterations =  4.9

     total cpu time spent up to now is      211.5 secs

     total energy              =   -9183.49872705 Ry
     estimated scf accuracy    <       0.00059988 Ry

     total magnetization       =     1.46 Bohr mag/cell
     absolute magnetization    =     2.33 Bohr mag/cell
[tb_dev] Currently allocated     0.00E+00 Mbytes, locked:    0 /   0
[tb_pin] Currently allocated     0.00E+00 Mbytes, locked:    0 /   0

     iteration # 10     ecut=    60.00 Ry     beta= 0.20
     Davidson diagonalization with overlap

---- Real-time Memory Report at c_bands before calling an iterative solver
          3570 MiB given to the printing process from OS
          1230 MiB allocation reported by mallinfo(arena+hblkhd)
        191748 MiB available memory on the node where the printing process lives
     GPU memory used/free/total (MiB): 8536 / 31905 / 40442
------------------
     ethr =  6.81E-08,  avg # of iterations =  1.6

     total cpu time spent up to now is      231.8 secs

     total energy              =   -9183.49883125 Ry
     estimated scf accuracy    <       0.00025229 Ry

     total magnetization       =     1.40 Bohr mag/cell
     absolute magnetization    =     2.18 Bohr mag/cell
[tb_dev] Currently allocated     0.00E+00 Mbytes, locked:    0 /   0
[tb_pin] Currently allocated     0.00E+00 Mbytes, locked:    0 /   0

     iteration # 11     ecut=    60.00 Ry     beta= 0.20
     Davidson diagonalization with overlap

---- Real-time Memory Report at c_bands before calling an iterative solver
          3604 MiB given to the printing process from OS
          1230 MiB allocation reported by mallinfo(arena+hblkhd)
        191747 MiB available memory on the node where the printing process lives
     GPU memory used/free/total (MiB): 8536 / 31905 / 40442
------------------
     ethr =  2.86E-08,  avg # of iterations =  4.0

     total cpu time spent up to now is      253.7 secs

     total energy              =   -9183.49892869 Ry
     estimated scf accuracy    <       0.00008016 Ry

     total magnetization       =     1.31 Bohr mag/cell
     absolute magnetization    =     1.95 Bohr mag/cell
[tb_dev] Currently allocated     0.00E+00 Mbytes, locked:    0 /   0
[tb_pin] Currently allocated     0.00E+00 Mbytes, locked:    0 /   0

     iteration # 12     ecut=    60.00 Ry     beta= 0.20
     Davidson diagonalization with overlap

---- Real-time Memory Report at c_bands before calling an iterative solver
          3638 MiB given to the printing process from OS
          1230 MiB allocation reported by mallinfo(arena+hblkhd)
        191775 MiB available memory on the node where the printing process lives
     GPU memory used/free/total (MiB): 8542 / 31899 / 40442
------------------
     ethr =  9.10E-09,  avg # of iterations =  3.2

     total cpu time spent up to now is      275.1 secs

     total energy              =   -9183.49894681 Ry
     estimated scf accuracy    <       0.00006052 Ry

     total magnetization       =     1.28 Bohr mag/cell
     absolute magnetization    =     1.89 Bohr mag/cell
[tb_dev] Currently allocated     0.00E+00 Mbytes, locked:    0 /   0
[tb_pin] Currently allocated     0.00E+00 Mbytes, locked:    0 /   0

     iteration # 13     ecut=    60.00 Ry     beta= 0.20
     Davidson diagonalization with overlap

---- Real-time Memory Report at c_bands before calling an iterative solver
          3672 MiB given to the printing process from OS
          1230 MiB allocation reported by mallinfo(arena+hblkhd)
        191657 MiB available memory on the node where the printing process lives
     GPU memory used/free/total (MiB): 8542 / 31899 / 40442
------------------
     ethr =  6.87E-09,  avg # of iterations =  3.3

     total cpu time spent up to now is      296.6 secs

     total energy              =   -9183.49896797 Ry
     estimated scf accuracy    <       0.00001800 Ry

     total magnetization       =     1.24 Bohr mag/cell
     absolute magnetization    =     1.82 Bohr mag/cell
[tb_dev] Currently allocated     0.00E+00 Mbytes, locked:    0 /   0
[tb_pin] Currently allocated     0.00E+00 Mbytes, locked:    0 /   0

     iteration # 14     ecut=    60.00 Ry     beta= 0.20
     Davidson diagonalization with overlap

---- Real-time Memory Report at c_bands before calling an iterative solver
          3705 MiB given to the printing process from OS
          1230 MiB allocation reported by mallinfo(arena+hblkhd)
        190654 MiB available memory on the node where the printing process lives
     GPU memory used/free/total (MiB): 8542 / 31899 / 40442
------------------
     ethr =  2.04E-09,  avg # of iterations =  5.1

     total cpu time spent up to now is      321.7 secs

     total energy              =   -9183.49898428 Ry
     estimated scf accuracy    <       0.00000892 Ry

     total magnetization       =     1.19 Bohr mag/cell
     absolute magnetization    =     1.75 Bohr mag/cell
[tb_dev] Currently allocated     0.00E+00 Mbytes, locked:    0 /   0
[tb_pin] Currently allocated     0.00E+00 Mbytes, locked:    0 /   0

     iteration # 15     ecut=    60.00 Ry     beta= 0.20
     Davidson diagonalization with overlap

---- Real-time Memory Report at c_bands before calling an iterative solver
          3705 MiB given to the printing process from OS
          1230 MiB allocation reported by mallinfo(arena+hblkhd)
        191805 MiB available memory on the node where the printing process lives
     GPU memory used/free/total (MiB): 8542 / 31899 / 40442
------------------
     ethr =  1.01E-09,  avg # of iterations =  2.0

     total cpu time spent up to now is      342.2 secs

     total energy              =   -9183.49898496 Ry
     estimated scf accuracy    <       0.00000656 Ry

     total magnetization       =     1.18 Bohr mag/cell
     absolute magnetization    =     1.74 Bohr mag/cell
[tb_dev] Currently allocated     0.00E+00 Mbytes, locked:    0 /   0
[tb_pin] Currently allocated     0.00E+00 Mbytes, locked:    0 /   0

     iteration # 16     ecut=    60.00 Ry     beta= 0.20
     Davidson diagonalization with overlap

---- Real-time Memory Report at c_bands before calling an iterative solver
          3706 MiB given to the printing process from OS
          1230 MiB allocation reported by mallinfo(arena+hblkhd)
        191833 MiB available memory on the node where the printing process lives
     GPU memory used/free/total (MiB): 8542 / 31899 / 40442
------------------
     ethr =  7.45E-10,  avg # of iterations =  4.8

     total cpu time spent up to now is      366.3 secs

     total energy              =   -9183.49899420 Ry
     estimated scf accuracy    <       0.00000271 Ry

     total magnetization       =     1.14 Bohr mag/cell
     absolute magnetization    =     1.70 Bohr mag/cell
[tb_dev] Currently allocated     0.00E+00 Mbytes, locked:    0 /   0
[tb_pin] Currently allocated     0.00E+00 Mbytes, locked:    0 /   0

     iteration # 17     ecut=    60.00 Ry     beta= 0.20
     Davidson diagonalization with overlap

---- Real-time Memory Report at c_bands before calling an iterative solver
          3706 MiB given to the printing process from OS
          1230 MiB allocation reported by mallinfo(arena+hblkhd)
        190903 MiB available memory on the node where the printing process lives
     GPU memory used/free/total (MiB): 8542 / 31899 / 40442
------------------
     ethr =  3.08E-10,  avg # of iterations =  2.9

     total cpu time spent up to now is      387.7 secs

     total energy              =   -9183.49899574 Ry
     estimated scf accuracy    <       0.00000171 Ry

     total magnetization       =     1.12 Bohr mag/cell
     absolute magnetization    =     1.68 Bohr mag/cell
[tb_dev] Currently allocated     0.00E+00 Mbytes, locked:    0 /   0
[tb_pin] Currently allocated     0.00E+00 Mbytes, locked:    0 /   0

     iteration # 18     ecut=    60.00 Ry     beta= 0.20
     Davidson diagonalization with overlap

---- Real-time Memory Report at c_bands before calling an iterative solver
          3706 MiB given to the printing process from OS
          1230 MiB allocation reported by mallinfo(arena+hblkhd)
        196871 MiB available memory on the node where the printing process lives
     GPU memory used/free/total (MiB): 8542 / 31899 / 40442
------------------
     ethr =  1.94E-10,  avg # of iterations =  4.8

     total cpu time spent up to now is      410.1 secs

     total energy              =   -9183.49899683 Ry
     estimated scf accuracy    <       0.00000070 Ry

     total magnetization       =     1.11 Bohr mag/cell
     absolute magnetization    =     1.67 Bohr mag/cell
[tb_dev] Currently allocated     0.00E+00 Mbytes, locked:    0 /   0
[tb_pin] Currently allocated     0.00E+00 Mbytes, locked:    0 /   0

     iteration # 19     ecut=    60.00 Ry     beta= 0.20
     Davidson diagonalization with overlap

---- Real-time Memory Report at c_bands before calling an iterative solver
          3706 MiB given to the printing process from OS
          1230 MiB allocation reported by mallinfo(arena+hblkhd)
        193280 MiB available memory on the node where the printing process lives
     GPU memory used/free/total (MiB): 8542 / 31899 / 40442
------------------
     ethr =  7.99E-11,  avg # of iterations =  4.9

     total cpu time spent up to now is      434.2 secs

     total energy              =   -9183.49899729 Ry
     estimated scf accuracy    <       0.00000037 Ry

     total magnetization       =     1.10 Bohr mag/cell
     absolute magnetization    =     1.66 Bohr mag/cell
[tb_dev] Currently allocated     0.00E+00 Mbytes, locked:    0 /   0
[tb_pin] Currently allocated     0.00E+00 Mbytes, locked:    0 /   0

     iteration # 20     ecut=    60.00 Ry     beta= 0.20
     Davidson diagonalization with overlap

---- Real-time Memory Report at c_bands before calling an iterative solver
          3706 MiB given to the printing process from OS
          1230 MiB allocation reported by mallinfo(arena+hblkhd)
        192243 MiB available memory on the node where the printing process lives
     GPU memory used/free/total (MiB): 8542 / 31899 / 40442
------------------
     ethr =  4.21E-11,  avg # of iterations =  5.0

     total cpu time spent up to now is      459.3 secs

     total energy              =   -9183.49899819 Ry
     estimated scf accuracy    <       0.00000022 Ry

     total magnetization       =     1.09 Bohr mag/cell
     absolute magnetization    =     1.64 Bohr mag/cell
[tb_dev] Currently allocated     0.00E+00 Mbytes, locked:    0 /   0
[tb_pin] Currently allocated     0.00E+00 Mbytes, locked:    0 /   0

     iteration # 21     ecut=    60.00 Ry     beta= 0.20
     Davidson diagonalization with overlap

---- Real-time Memory Report at c_bands before calling an iterative solver
          3706 MiB given to the printing process from OS
          1230 MiB allocation reported by mallinfo(arena+hblkhd)
        192175 MiB available memory on the node where the printing process lives
     GPU memory used/free/total (MiB): 8542 / 31899 / 40442
------------------
     ethr =  2.53E-11,  avg # of iterations =  2.1

     total cpu time spent up to now is      479.6 secs

     total energy              =   -9183.49899805 Ry
     estimated scf accuracy    <       0.00000012 Ry

     total magnetization       =     1.09 Bohr mag/cell
     absolute magnetization    =     1.64 Bohr mag/cell
[tb_dev] Currently allocated     0.00E+00 Mbytes, locked:    0 /   0
[tb_pin] Currently allocated     0.00E+00 Mbytes, locked:    0 /   0

     iteration # 22     ecut=    60.00 Ry     beta= 0.20
     Davidson diagonalization with overlap

---- Real-time Memory Report at c_bands before calling an iterative solver
          3706 MiB given to the printing process from OS
          1230 MiB allocation reported by mallinfo(arena+hblkhd)
        192128 MiB available memory on the node where the printing process lives
     GPU memory used/free/total (MiB): 8542 / 31899 / 40442
------------------
     ethr =  1.34E-11,  avg # of iterations =  5.4
 
     Magnetic moment per site  (integrated on atomic sphere of radius R)
     atom   1 (R=0.102)  charge= 13.8747  magn= -0.0002
     atom   2 (R=0.102)  charge= 13.8756  magn= -0.0010
     atom   3 (R=0.075)  charge=  1.6545  magn=  0.0000
     atom   4 (R=0.075)  charge=  1.6544  magn=  0.0003
     atom   5 (R=0.075)  charge=  1.6544  magn=  0.0003
     atom   6 (R=0.075)  charge=  1.6540  magn= -0.0001
     atom   7 (R=0.102)  charge= 13.8772  magn=  0.0043
     atom   8 (R=0.102)  charge= 13.8783  magn=  0.0254
     atom   9 (R=0.075)  charge=  1.6564  magn= -0.0002
     atom  10 (R=0.075)  charge=  1.6545  magn= -0.0017
     atom  11 (R=0.075)  charge=  1.6544  magn= -0.0012
     atom  12 (R=0.075)  charge=  1.6541  magn= -0.0003
     atom  13 (R=0.102)  charge= 13.8779  magn=  0.0078
     atom  14 (R=0.102)  charge= 13.8702  magn=  0.0127
     atom  15 (R=0.075)  charge=  1.6546  magn= -0.0006
     atom  16 (R=0.075)  charge=  1.6582  magn=  0.0054
     atom  17 (R=0.075)  charge=  1.6534  magn= -0.0007
     atom  18 (R=0.075)  charge=  1.6542  magn= -0.0003
     atom  19 (R=0.102)  charge= 13.8773  magn=  0.0061
     atom  20 (R=0.102)  charge= 13.8746  magn= -0.0022
     atom  21 (R=0.075)  charge=  1.6557  magn= -0.0002
     atom  22 (R=0.075)  charge=  1.6542  magn= -0.0027
     atom  23 (R=0.075)  charge=  1.6545  magn= -0.0001
     atom  24 (R=0.075)  charge=  1.6541  magn= -0.0001
     atom  25 (R=0.102)  charge= 13.8712  magn=  0.0133
     atom  26 (R=0.102)  charge= 13.8748  magn=  0.0038
     atom  27 (R=0.075)  charge=  1.6547  magn= -0.0001
     atom  28 (R=0.075)  charge=  1.6546  magn=  0.0002
     atom  29 (R=0.075)  charge=  1.6544  magn=  0.0002
     atom  30 (R=0.075)  charge=  1.6529  magn= -0.0009
     atom  31 (R=0.102)  charge= 13.8809  magn=  0.0259
     atom  32 (R=0.102)  charge= 13.8668  magn=  0.0042
     atom  33 (R=0.075)  charge=  1.6545  magn=  0.0001
     atom  34 (R=0.075)  charge=  1.6546  magn= -0.0006
     atom  35 (R=0.075)  charge=  1.6539  magn=  0.0002
     atom  36 (R=0.075)  charge=  1.6555  magn=  0.0029
     atom  37 (R=0.102)  charge= 13.8716  magn=  0.0011
     atom  38 (R=0.102)  charge= 13.8761  magn=  0.0488
     atom  39 (R=0.075)  charge=  1.6541  magn= -0.0001
     atom  40 (R=0.075)  charge=  1.6499  magn=  0.0001
     atom  41 (R=0.075)  charge=  1.6553  magn=  0.0003
     atom  42 (R=0.075)  charge=  1.6575  magn=  0.0167
     atom  43 (R=0.102)  charge= 13.8801  magn=  0.0383
     atom  44 (R=0.102)  charge= 13.8759  magn= -0.0064
     atom  45 (R=0.075)  charge=  1.6549  magn=  0.0002
     atom  46 (R=0.075)  charge=  1.6549  magn= -0.0015
     atom  47 (R=0.075)  charge=  1.6543  magn=  0.0003
     atom  48 (R=0.075)  charge=  1.6527  magn= -0.0013
     atom  49 (R=0.102)  charge= 13.8747  magn=  0.0061
     atom  50 (R=0.102)  charge= 13.8762  magn= -0.0007
     atom  51 (R=0.075)  charge=  1.6549  magn=  0.0002
     atom  52 (R=0.075)  charge=  1.6543  magn= -0.0001
     atom  53 (R=0.075)  charge=  1.6534  magn= -0.0007
     atom  54 (R=0.075)  charge=  1.6537  magn=  0.0002
     atom  55 (R=0.102)  charge= 13.8754  magn= -0.0060
     atom  56 (R=0.102)  charge= 13.8766  magn=  0.0639
     atom  57 (R=0.075)  charge=  1.6546  magn= -0.0011
     atom  58 (R=0.075)  charge=  1.6547  magn=  0.0001
     atom  59 (R=0.075)  charge=  1.6562  magn=  0.0183
     atom  60 (R=0.075)  charge=  1.6545  magn=  0.0002
     atom  61 (R=0.102)  charge= 13.8657  magn=  0.0086
     atom  62 (R=0.102)  charge= 13.8743  magn=  0.0484
     atom  63 (R=0.075)  charge=  1.6515  magn= -0.0002
     atom  64 (R=0.075)  charge=  1.6542  magn= -0.0002
     atom  65 (R=0.075)  charge=  1.6550  magn=  0.0194
     atom  66 (R=0.075)  charge=  1.6547  magn= -0.0000
     atom  67 (R=0.102)  charge= 13.8753  magn= -0.0075
     atom  68 (R=0.102)  charge= 13.8753  magn= -0.0030
     atom  69 (R=0.075)  charge=  1.6550  magn= -0.0015
     atom  70 (R=0.075)  charge=  1.6541  magn=  0.0001
     atom  71 (R=0.075)  charge=  1.6533  magn= -0.0013
     atom  72 (R=0.075)  charge=  1.6539  magn=  0.0003
     atom  73 (R=0.102)  charge= 13.8712  magn= -0.0372
     atom  74 (R=0.102)  charge= 13.8730  magn= -0.0085
     atom  75 (R=0.075)  charge=  1.6549  magn=  0.0002
     atom  76 (R=0.075)  charge=  1.6538  magn= -0.0000
     atom  77 (R=0.075)  charge=  1.6543  magn= -0.0000
     atom  78 (R=0.075)  charge=  1.6545  magn= -0.0003
     atom  79 (R=0.102)  charge= 13.8551  magn=  0.2303
     atom  80 (R=0.102)  charge= 13.8682  magn=  0.0143
     atom  81 (R=0.075)  charge=  1.6547  magn= -0.0016
     atom  82 (R=0.075)  charge=  1.6553  magn= -0.0002
     atom  83 (R=0.075)  charge=  1.6548  magn= -0.0002
     atom  84 (R=0.075)  charge=  1.6534  magn= -0.0002
     atom  85 (R=0.102)  charge= 13.8686  magn=  0.0004
     atom  86 (R=0.075)  charge=  1.6553  magn=  0.0080
     atom  87 (R=0.075)  charge=  1.6542  magn= -0.0004
     atom  88 (R=0.075)  charge=  1.6552  magn= -0.0002
     atom  89 (R=0.075)  charge=  1.6530  magn= -0.0012
     atom  90 (R=0.102)  charge= 13.8457  magn=  0.4092
     atom  91 (R=0.102)  charge= 13.8731  magn= -0.0063
     atom  92 (R=0.075)  charge=  1.6553  magn= -0.0026
     atom  93 (R=0.075)  charge=  1.6552  magn= -0.0004
     atom  94 (R=0.075)  charge=  1.6542  magn= -0.0001
     atom  95 (R=0.075)  charge=  1.6545  magn= -0.0001
     atom  96 (R=0.075)  charge=  0.7633  magn=  0.0015

     total cpu time spent up to now is      505.5 secs

     End of self-consistent calculation

 ------ SPIN UP ------------


          k = 0.0000 0.0000 0.0000 ( 69157 PWs)   bands (ev):

   -75.3857 -75.2013 -74.9389 -74.9366 -74.9186 -74.9045 -74.8950 -74.8919
   -74.8873 -74.8806 -74.8777 -74.8710 -74.8645 -74.8590 -74.8571 -74.8564
   -74.8561 -74.8555 -74.8554 -74.8544 -74.8525 -74.8523 -74.8515 -74.8508
   -74.8500 -74.8495 -74.8478 -74.8470 -74.8462 -74.8438 -74.8436 -41.4595
   -41.4283 -41.2248 -41.1869 -41.1810 -41.0964 -41.0245 -41.0188 -40.9825
   -40.9688 -40.9554 -40.9523 -40.9480 -40.9449 -40.9407 -40.9375 -40.9365
   -40.9337 -40.9333 -40.9321 -40.9319 -40.9295 -40.9285 -40.9268 -40.9265
   -40.9252 -40.9247 -40.9240 -40.9237 -40.9228 -40.9217 -40.9196 -40.9165
   -40.9145 -40.9121 -40.8771 -40.8689 -40.8614 -40.8506 -40.8329 -40.8316
   -40.8274 -40.8257 -40.8225 -40.8217 -40.8177 -40.8156 -40.8087 -40.8050
   -40.8021 -40.7979 -40.7956 -40.7954 -40.7942 -40.7927 -40.7924 -40.7920
   -40.7909 -40.7890 -40.7878 -40.7873 -40.7862 -40.7852 -40.7844 -40.7831
   -40.7816 -40.7808 -40.7799 -40.7770 -40.7764 -40.7745 -40.7709 -40.7647
   -40.7600 -40.7597 -40.7585 -40.7564 -40.7540 -40.7525 -40.7515 -40.7508
   -40.7482 -40.7470 -40.7450 -40.7444 -40.7428 -40.7423 -40.7404 -40.7387
   -40.7365 -40.7350 -40.7313 -40.7301  -4.3684  -3.8680  -3.8137  -3.4757
    -3.4469  -3.0917  -3.0571  -3.0367  -3.0016  -2.9877  -2.9049  -2.7009
    -2.6627  -2.6520  -2.6404  -2.6171  -2.5579  -2.5430  -2.5132  -2.4779
    -2.4726  -2.3654  -2.3483  -2.3246  -2.2823  -2.2377  -2.2044  -2.0863
    -2.0801  -1.9829  -1.9774  -1.9354  -1.3849  -1.3250  -0.9607  -0.9442
    -0.9140  -0.8612  -0.6341  -0.5933  -0.4859  -0.4562  -0.4536  -0.3833
    -0.3583  -0.3236  -0.2790  -0.2393  -0.1181  -0.0286  -0.0072   0.0844
     0.0941   0.2741   0.2965   0.2975   0.3025   0.3666   0.3974   0.4382
     0.4753   0.4864   0.5903   0.6516   4.5399   4.7093   4.7323   4.9094
     5.1270   5.1551   5.1580   5.1734   5.2011   5.2338   5.2500   5.2679
     5.2836   5.2969   5.3051   5.3269   5.4163   5.5269   5.5539   5.6572
     5.6861   5.7018   5.7555   5.7686   5.8521   5.8898   5.8909   5.9178
     5.9262   5.9333   5.9515   5.9629   5.9810   6.0225   6.0415   6.0601
     6.0785   6.1759   6.2378   6.2768   6.5393   6.5674   6.6049   6.6105
     6.7191   6.7468   6.7785   6.8199   6.8275   6.8319   6.8516   6.9030
     6.9596   6.9812   7.0084   7.0859   7.1408   7.1488   7.1595   7.1843
     7.1976   7.2098   7.2281   7.2481   7.2973   7.3441   7.3695   7.4490
     7.6870   7.7934   7.8010   7.8100   7.8216   7.8336   7.8425   7.8540
     7.8593   7.8688   7.8716   7.8727   7.8794   7.8896   7.9014   7.9038
     7.9291   7.9585   7.9854   8.0751   8.1585   8.1681   8.2024   8.2324
     8.2932   8.2973   8.3010   8.3424   8.3616   8.4052   8.4644   8.4726
     8.4797   8.5010   8.5077   8.5262   8.5346   8.5383   8.5844   8.6167
     8.6221   8.6265   8.6614   8.6798   8.6885   8.7384   8.7399   8.7492
     8.7607   8.7974   8.8108   8.8215   8.8392   8.8920   8.9032   8.9310
     8.9478   8.9782   9.0341   9.1491   9.2430   9.3385   9.3659   9.3855
     9.4008   9.4382   9.4766   9.4886   9.5038   9.5588   9.5638   9.5799
     9.5855   9.6070   9.6103   9.6199   9.6500   9.6759   9.8166   9.8544
     9.9409   9.9804  10.0400  10.1806  10.2113  10.2259  10.3721  10.3826
    10.3985  10.4271  10.4533  10.6108  10.6789  10.6877  10.7178  10.7389
    10.7485  10.7604  10.8207  10.8276  10.8358  10.8498  10.8512  10.8730
    10.8772  10.8856  10.8906  10.9020  10.9252  10.9532  10.9638  10.9874
    11.0025  11.0341  11.1055  11.1267  11.1492  11.1608  11.1695  11.1886
    11.1983  11.2275  11.2565  11.2683  11.2725  11.2808  11.2851  11.2882
    11.2917  11.2973  11.3153  11.3274  11.3489  11.3643  11.3748  11.3821
    11.3871  11.3940  11.3985  11.4043  11.4277  11.4329  11.4773  11.4849
    11.5004  11.5165  11.5243  11.5858  11.6032  11.6141  11.6366  11.6677
    11.6787  11.6818  11.7073  11.7130  11.7152  11.7371  11.7466  11.7970
    11.8069  11.8640  11.8931  11.9074  11.9211  11.9400  11.9408  11.9509
    11.9744  11.9775  11.9941  12.0154  12.0682  12.0889  12.0943  12.1063
    12.1500  12.1795  12.1933  12.2513  12.2678  12.2722  12.2966  12.3232
    12.3578  13.0876  13.1248  13.2826  13.3233  13.3433  13.3503  13.3561
    13.4061  13.4341  13.5042  13.6347  13.6405  13.6445  13.6543  13.6893
    13.7023  13.7234  13.7470  13.7951  13.8167  13.8199  13.8290  13.8348
    13.8489  13.8695  13.8803  13.9108  13.9249  13.9278  13.9411  13.9553
    13.9671  14.0014  14.0513  14.0855  14.1037  14.1322  14.1435  14.1644
    14.1662  14.1675  14.1780  14.1897  14.2311  14.2384  14.2673  14.2956
    14.3354  14.3396  14.3603  14.3725  14.4031  14.4195  14.4290  14.4389
    14.4780  14.5431  14.5499  14.6418  14.6750  14.6999  14.7291  14.7562
    14.7589  14.7723  14.7876  14.8054  14.8135  14.8311  14.8698  14.8789
    14.9264  14.9408  14.9510  14.9805  14.9899  15.0546  15.0653  15.1331
    15.1720  15.2381  15.2509  15.2633  15.3549  15.3932  15.4123  15.4583
    15.4902

     occupation numbers 
     1.0000   1.0000   1.0000   1.0000   1.0000   1.0000   1.0000   1.0000
     1.0000   1.0000   1.0000   1.0000   1.0000   1.0000   1.0000   1.0000
     1.0000   1.0000   1.0000   1.0000   1.0000   1.0000   1.0000   1.0000
     1.0000   1.0000   1.0000   1.0000   1.0000   1.0000   1.0000   1.0000
     1.0000   1.0000   1.0000   1.0000   1.0000   1.0000   1.0000   1.0000
     1.0000   1.0000   1.0000   1.0000   1.0000   1.0000   1.0000   1.0000
     1.0000   1.0000   1.0000   1.0000   1.0000   1.0000   1.0000   1.0000
     1.0000   1.0000   1.0000   1.0000   1.0000   1.0000   1.0000   1.0000
     1.0000   1.0000   1.0000   1.0000   1.0000   1.0000   1.0000   1.0000
     1.0000   1.0000   1.0000   1.0000   1.0000   1.0000   1.0000   1.0000
     1.0000   1.0000   1.0000   1.0000   1.0000   1.0000   1.0000   1.0000
     1.0000   1.0000   1.0000   1.0000   1.0000   1.0000   1.0000   1.0000
     1.0000   1.0000   1.0000   1.0000   1.0000   1.0000   1.0000   1.0000
     1.0000   1.0000   1.0000   1.0000   1.0000   1.0000   1.0000   1.0000
     1.0000   1.0000   1.0000   1.0000   1.0000   1.0000   1.0000   1.0000
     1.0000   1.0000   1.0000   1.0000   1.0000   1.0000   1.0000   1.0000
     1.0000   1.0000   1.0000   1.0000   1.0000   1.0000   1.0000   1.0000
     1.0000   1.0000   1.0000   1.0000   1.0000   1.0000   1.0000   1.0000
     1.0000   1.0000   1.0000   1.0000   1.0000   1.0000   1.0000   1.0000
     1.0000   1.0000   1.0000   1.0000   1.0000   1.0000   1.0000   1.0000
     1.0000   1.0000   1.0000   1.0000   1.0000   1.0000   1.0000   1.0000
     1.0000   1.0000   1.0000   1.0000   1.0000   1.0000   1.0000   1.0000
     1.0000   1.0000   1.0000   1.0000   1.0000   1.0000   1.0000   1.0000
     1.0000   1.0000   1.0000   1.0000   1.0000   1.0000   1.0000   1.0000
     1.0000   1.0000   1.0000   1.0000   1.0000   1.0000   1.0000   1.0000
     1.0000   1.0000   1.0000   1.0000   1.0000   1.0000   1.0000   1.0000
     1.0000   1.0000   1.0000   1.0000   1.0000   1.0000   1.0000   1.0000
     1.0000   1.0000   1.0000   1.0000   1.0000   1.0000   1.0000   1.0000
     1.0000   1.0000   1.0000   1.0000   1.0000   1.0000   1.0000   1.0000
     1.0000   1.0000   1.0000   1.0000   1.0000   1.0000   1.0000   1.0000
     1.0000   1.0000   1.0000   1.0000   1.0000   1.0000   1.0000   1.0000
     1.0000   1.0000   1.0000   1.0000   1.0000   1.0000   1.0000   1.0000
     1.0000   1.0000   1.0000   1.0000   1.0000   1.0000   1.0000   1.0000
     1.0000   1.0000   1.0000   1.0000   1.0000   1.0000   1.0000   1.0000
     1.0000   1.0000   1.0000   1.0000   1.0000   1.0000   1.0000   1.0000
     1.0000   1.0000   1.0000   1.0000   1.0000   1.0000   1.0000   1.0000
     1.0000   1.0000   1.0000   1.0000   1.0000   1.0000   1.0000   1.0000
     1.0000   1.0000   1.0000   1.0000   1.0000   1.0000   1.0000   1.0000
     1.0000   1.0000   1.0000   1.0000   1.0000   1.0000   1.0000   1.0000
     1.0000   1.0000   1.0000   1.0000   1.0000   1.0000   1.0000   1.0000
     1.0000   1.0000   1.0000   1.0000   1.0000   1.0000   1.0000   1.0000
     1.0000   1.0000   1.0000   1.0000   1.0000   1.0000   1.0000   1.0000
     1.0000   1.0000   1.0000   1.0000   1.0000   1.0000   1.0000   1.0000
     1.0000   1.0000   1.0000   1.0000   1.0000   1.0000   1.0000   1.0000
     1.0000   1.0000   1.0000   1.0000   1.0000   1.0000   1.0000   1.0000
     1.0000   1.0000   1.0000   1.0000   1.0000   1.0000   1.0000   1.0000
     1.0000   1.0000   1.0000   1.0000   1.0000   1.0000   1.0000   1.0000
     1.0000   1.0000   1.0000   1.0000   1.0000   1.0000   1.0000   1.0000
     1.0000   1.0000   1.0000   1.0000   1.0000   1.0000   1.0000   1.0000
     1.0000   1.0000   1.0000   1.0000   1.0000   1.0000   1.0000   1.0000
     1.0000   1.0000   1.0000   1.0000   1.0000   1.0000   1.0001   1.0001
     1.0002   1.0002   1.0004   1.0005   1.0005   1.0008   1.0010   1.0029
     1.0036   1.0100   1.0158   1.0195   1.0235   1.0299   1.0302   1.0340
     1.0438   1.0452   1.0528   1.0625   1.0813   1.0833   1.0831   1.0812
     1.0549   1.0159   0.9911   0.8430   0.7898   0.7751   0.6892   0.5914
     0.4656   0.0000   0.0000   0.0000   0.0000   0.0000   0.0000   0.0000
     0.0000   0.0000   0.0000   0.0000   0.0000   0.0000   0.0000   0.0000
     0.0000   0.0000   0.0000   0.0000   0.0000   0.0000   0.0000   0.0000
     0.0000   0.0000   0.0000   0.0000   0.0000   0.0000   0.0000   0.0000
     0.0000   0.0000   0.0000   0.0000   0.0000   0.0000   0.0000   0.0000
     0.0000   0.0000   0.0000   0.0000   0.0000   0.0000   0.0000   0.0000
     0.0000   0.0000   0.0000   0.0000   0.0000   0.0000   0.0000   0.0000
     0.0000   0.0000   0.0000   0.0000   0.0000   0.0000   0.0000   0.0000
     0.0000   0.0000   0.0000   0.0000   0.0000   0.0000   0.0000   0.0000
     0.0000   0.0000   0.0000   0.0000   0.0000   0.0000   0.0000   0.0000
     0.0000   0.0000   0.0000   0.0000   0.0000   0.0000   0.0000   0.0000
     0.0000

          k = 0.0000 0.0000 0.2186 ( 69203 PWs)   bands (ev):

   -75.3859 -75.2014 -74.9390 -74.9367 -74.9187 -74.9047 -74.8951 -74.8920
   -74.8874 -74.8807 -74.8778 -74.8711 -74.8646 -74.8591 -74.8571 -74.8565
   -74.8562 -74.8559 -74.8554 -74.8545 -74.8525 -74.8524 -74.8518 -74.8510
   -74.8501 -74.8497 -74.8480 -74.8471 -74.8463 -74.8439 -74.8438 -41.4600
   -41.4283 -41.2252 -41.1869 -41.1813 -41.0968 -41.0248 -41.0192 -40.9828
   -40.9691 -40.9557 -40.9526 -40.9483 -40.9452 -40.9411 -40.9375 -40.9369
   -40.9340 -40.9333 -40.9327 -40.9319 -40.9296 -40.9291 -40.9275 -40.9265
   -40.9257 -40.9251 -40.9248 -40.9244 -40.9236 -40.9227 -40.9201 -40.9169
   -40.9153 -40.9127 -40.8776 -40.8688 -40.8618 -40.8510 -40.8333 -40.8317
   -40.8277 -40.8264 -40.8227 -40.8220 -40.8179 -40.8160 -40.8090 -40.8054
   -40.8025 -40.7985 -40.7957 -40.7955 -40.7947 -40.7931 -40.7928 -40.7924
   -40.7916 -40.7889 -40.7882 -40.7874 -40.7866 -40.7858 -40.7849 -40.7837
   -40.7818 -40.7809 -40.7801 -40.7776 -40.7767 -40.7754 -40.7715 -40.7649
   -40.7601 -40.7598 -40.7589 -40.7582 -40.7542 -40.7526 -40.7514 -40.7501
   -40.7486 -40.7470 -40.7454 -40.7448 -40.7424 -40.7417 -40.7406 -40.7379
   -40.7361 -40.7348 -40.7311 -40.7296  -4.3073  -4.1272  -3.4786  -3.4233
    -3.3963  -3.2736  -3.2497  -3.0623  -2.9639  -2.8804  -2.8260  -2.7881
    -2.7763  -2.7531  -2.5841  -2.5666  -2.5421  -2.5031  -2.4781  -2.4369
    -2.4333  -2.4018  -2.3055  -2.2994  -2.2581  -2.2173  -2.1950  -2.1188
    -2.1130  -2.0651  -1.9669  -1.9328  -1.3312  -1.2831  -1.1775  -1.0957
    -0.7118  -0.6596  -0.6055  -0.5792  -0.5529  -0.4957  -0.4756  -0.4144
    -0.3600  -0.3113  -0.2892  -0.2186  -0.1335  -0.1174   0.0847   0.1143
     0.1454   0.2018   0.2390   0.2888   0.3472   0.3624   0.3845   0.4319
     0.4843   0.4945   0.5930   0.6513   4.5714   4.7760   4.7907   4.8601
     4.9641   4.9993   5.1178   5.2329   5.2673   5.2867   5.3317   5.3594
     5.3734   5.3834   5.4092   5.4476   5.4696   5.5151   5.5248   5.5401
     5.5555   5.5585   5.5946   5.6054   5.6562   5.7150   5.8187   5.8433
     5.9142   5.9579   5.9647   5.9827   6.0226   6.0859   6.1520   6.1856
     6.3978   6.4072   6.4351   6.4506   6.4725   6.4910   6.5024   6.5285
     6.6035   6.6567   6.7094   6.7583   6.8156   6.8411   6.8684   6.8759
     6.9097   6.9288   6.9591   7.0312   7.0740   7.1294   7.2092   7.2442
     7.2666   7.2839   7.3045   7.3428   7.3578   7.4054   7.4253   7.4509
     7.4955   7.5214   7.6247   7.6829   7.7467   7.7656   7.7760   7.8554
     7.8743   7.8790   7.8932   7.9232   7.9458   7.9834   8.0037   8.0423
     8.0703   8.1011   8.1110   8.1243   8.1701   8.2027   8.2313   8.2539
     8.2920   8.3349   8.3460   8.3648   8.3791   8.3891   8.4086   8.4163
     8.4256   8.4463   8.4511   8.4764   8.4945   8.5131   8.5299   8.5433
     8.5724   8.5961   8.6149   8.6731   8.7040   8.7297   8.7687   8.7991
     8.8070   8.8276   8.8385   8.8562   8.8612   8.8766   8.9290   9.0036
     9.0373   9.0785   9.1383   9.1749   9.2046   9.2399   9.3181   9.3618
     9.4171   9.4560   9.4739   9.4859   9.4926   9.5153   9.5227   9.5339
     9.5667   9.5955   9.6633   9.6746   9.7173   9.7903   9.8407   9.8742
     9.9427   9.9973  10.0315  10.1173  10.1802  10.2257  10.2594  10.3632
    10.4211  10.4562  10.4709  10.4894  10.4938  10.5308  10.5621  10.5800
    10.6731  10.6942  10.7183  10.7388  10.7499  10.7959  10.8032  10.8115
    10.8367  10.8638  10.8789  10.9064  10.9409  10.9794  11.0002  11.0286
    11.0775  11.1110  11.1190  11.1383  11.1537  11.1935  11.2104  11.2281
    11.2333  11.2448  11.2523  11.2603  11.2705  11.2765  11.2882  11.3051
    11.3224  11.3377  11.3524  11.3780  11.3878  11.4061  11.4157  11.4245
    11.4590  11.4611  11.4709  11.4757  11.4870  11.4927  11.5003  11.5087
    11.5143  11.5237  11.5450  11.5648  11.5851  11.6068  11.6193  11.6391
    11.6466  11.6856  11.7068  11.7236  11.7504  11.7667  11.7901  11.8164
    11.8454  11.8954  11.9115  11.9311  11.9412  11.9542  11.9771  11.9857
    11.9927  12.0016  12.0168  12.0323  12.0452  12.0565  12.0743  12.1137
    12.1314  12.1368  12.1541  12.1885  12.1959  12.2150  12.2364  12.2999
    12.3423  13.1191  13.1595  13.2560  13.2711  13.3523  13.4066  13.4408
    13.4611  13.4835  13.5053  13.5213  13.5508  13.5823  13.6076  13.6529
    13.6738  13.6960  13.7070  13.7200  13.7413  13.7727  13.7912  13.8039
    13.8142  13.8330  13.8438  13.8647  13.8750  13.9104  13.9363  13.9619
    13.9858  14.0420  14.0504  14.0648  14.1262  14.1463  14.1629  14.1750
    14.1917  14.2043  14.2147  14.2628  14.2854  14.3164  14.3464  14.3768
    14.4244  14.4277  14.4362  14.4443  14.4591  14.4698  14.4797  14.4879
    14.5028  14.5115  14.5557  14.5657  14.6007  14.6226  14.6345  14.6526
    14.6652  14.7044  14.7244  14.7959  14.8297  14.8479  14.8782  14.9174
    14.9622  14.9831  15.0135  15.0353  15.0586  15.1121  15.1267  15.1630
    15.1721  15.2116  15.2270  15.2822  15.2977  15.3270  15.3507  15.3897
    15.4195

     occupation numbers 
     1.0000   1.0000   1.0000   1.0000   1.0000   1.0000   1.0000   1.0000
     1.0000   1.0000   1.0000   1.0000   1.0000   1.0000   1.0000   1.0000
     1.0000   1.0000   1.0000   1.0000   1.0000   1.0000   1.0000   1.0000
     1.0000   1.0000   1.0000   1.0000   1.0000   1.0000   1.0000   1.0000
     1.0000   1.0000   1.0000   1.0000   1.0000   1.0000   1.0000   1.0000
     1.0000   1.0000   1.0000   1.0000   1.0000   1.0000   1.0000   1.0000
     1.0000   1.0000   1.0000   1.0000   1.0000   1.0000   1.0000   1.0000
     1.0000   1.0000   1.0000   1.0000   1.0000   1.0000   1.0000   1.0000
     1.0000   1.0000   1.0000   1.0000   1.0000   1.0000   1.0000   1.0000
     1.0000   1.0000   1.0000   1.0000   1.0000   1.0000   1.0000   1.0000
     1.0000   1.0000   1.0000   1.0000   1.0000   1.0000   1.0000   1.0000
     1.0000   1.0000   1.0000   1.0000   1.0000   1.0000   1.0000   1.0000
     1.0000   1.0000   1.0000   1.0000   1.0000   1.0000   1.0000   1.0000
     1.0000   1.0000   1.0000   1.0000   1.0000   1.0000   1.0000   1.0000
     1.0000   1.0000   1.0000   1.0000   1.0000   1.0000   1.0000   1.0000
     1.0000   1.0000   1.0000   1.0000   1.0000   1.0000   1.0000   1.0000
     1.0000   1.0000   1.0000   1.0000   1.0000   1.0000   1.0000   1.0000
     1.0000   1.0000   1.0000   1.0000   1.0000   1.0000   1.0000   1.0000
     1.0000   1.0000   1.0000   1.0000   1.0000   1.0000   1.0000   1.0000
     1.0000   1.0000   1.0000   1.0000   1.0000   1.0000   1.0000   1.0000
     1.0000   1.0000   1.0000   1.0000   1.0000   1.0000   1.0000   1.0000
     1.0000   1.0000   1.0000   1.0000   1.0000   1.0000   1.0000   1.0000
     1.0000   1.0000   1.0000   1.0000   1.0000   1.0000   1.0000   1.0000
     1.0000   1.0000   1.0000   1.0000   1.0000   1.0000   1.0000   1.0000
     1.0000   1.0000   1.0000   1.0000   1.0000   1.0000   1.0000   1.0000
     1.0000   1.0000   1.0000   1.0000   1.0000   1.0000   1.0000   1.0000
     1.0000   1.0000   1.0000   1.0000   1.0000   1.0000   1.0000   1.0000
     1.0000   1.0000   1.0000   1.0000   1.0000   1.0000   1.0000   1.0000
     1.0000   1.0000   1.0000   1.0000   1.0000   1.0000   1.0000   1.0000
     1.0000   1.0000   1.0000   1.0000   1.0000   1.0000   1.0000   1.0000
     1.0000   1.0000   1.0000   1.0000   1.0000   1.0000   1.0000   1.0000
     1.0000   1.0000   1.0000   1.0000   1.0000   1.0000   1.0000   1.0000
     1.0000   1.0000   1.0000   1.0000   1.0000   1.0000   1.0000   1.0000
     1.0000   1.0000   1.0000   1.0000   1.0000   1.0000   1.0000   1.0000
     1.0000   1.0000   1.0000   1.0000   1.0000   1.0000   1.0000   1.0000
     1.0000   1.0000   1.0000   1.0000   1.0000   1.0000   1.0000   1.0000
     1.0000   1.0000   1.0000   1.0000   1.0000   1.0000   1.0000   1.0000
     1.0000   1.0000   1.0000   1.0000   1.0000   1.0000   1.0000   1.0000
     1.0000   1.0000   1.0000   1.0000   1.0000   1.0000   1.0000   1.0000
     1.0000   1.0000   1.0000   1.0000   1.0000   1.0000   1.0000   1.0000
     1.0000   1.0000   1.0000   1.0000   1.0000   1.0000   1.0000   1.0000
     1.0000   1.0000   1.0000   1.0000   1.0000   1.0000   1.0000   1.0000
     1.0000   1.0000   1.0000   1.0000   1.0000   1.0000   1.0000   1.0000
     1.0000   1.0000   1.0000   1.0000   1.0000   1.0000   1.0000   1.0000
     1.0000   1.0000   1.0000   1.0000   1.0000   1.0000   1.0000   1.0000
     1.0000   1.0000   1.0000   1.0000   1.0000   1.0000   1.0000   1.0000
     1.0000   1.0000   1.0000   1.0000   1.0000   1.0000   1.0000   1.0000
     1.0000   1.0000   1.0000   1.0000   1.0000   1.0000   1.0000   1.0000
     1.0000   1.0000   1.0000   1.0000   1.0000   1.0000   1.0000   1.0000
     1.0000   1.0000   1.0000   1.0000   1.0000   1.0000   1.0000   1.0000
     1.0000   1.0000   1.0000   1.0000   1.0000   1.0000   1.0000   1.0001
     1.0001   1.0002   1.0004   1.0006   1.0011   1.0016   1.0026   1.0043
     1.0073   1.0164   1.0206   1.0268   1.0303   1.0353   1.0450   1.0489
     1.0521   1.0562   1.0632   1.0698   1.0747   1.0784   1.0823   1.0790
     1.0702   1.0664   1.0505   1.0002   0.9859   0.9437   0.8874   0.6773
     0.5214   0.0000   0.0000   0.0000   0.0000   0.0000   0.0000   0.0000
     0.0000   0.0000   0.0000   0.0000   0.0000   0.0000   0.0000   0.0000
     0.0000   0.0000   0.0000   0.0000   0.0000   0.0000   0.0000   0.0000
     0.0000   0.0000   0.0000   0.0000   0.0000   0.0000   0.0000   0.0000
     0.0000   0.0000   0.0000   0.0000   0.0000   0.0000   0.0000   0.0000
     0.0000   0.0000   0.0000   0.0000   0.0000   0.0000   0.0000   0.0000
     0.0000   0.0000   0.0000   0.0000   0.0000   0.0000   0.0000   0.0000
     0.0000   0.0000   0.0000   0.0000   0.0000   0.0000   0.0000   0.0000
     0.0000   0.0000   0.0000   0.0000   0.0000   0.0000   0.0000   0.0000
     0.0000   0.0000   0.0000   0.0000   0.0000   0.0000   0.0000   0.0000
     0.0000   0.0000   0.0000   0.0000   0.0000   0.0000   0.0000   0.0000
     0.0000

          k = 0.0000-0.4095 0.0000 ( 69190 PWs)   bands (ev):

   -75.3858 -75.2014 -74.9390 -74.9367 -74.9187 -74.9046 -74.8950 -74.8920
   -74.8874 -74.8807 -74.8778 -74.8711 -74.8645 -74.8590 -74.8569 -74.8565
   -74.8562 -74.8558 -74.8555 -74.8545 -74.8524 -74.8523 -74.8518 -74.8509
   -74.8501 -74.8497 -74.8480 -74.8471 -74.8464 -74.8441 -74.8436 -41.4595
   -41.4288 -41.2247 -41.1874 -41.1811 -41.0966 -41.0245 -41.0190 -40.9825
   -40.9688 -40.9555 -40.9523 -40.9480 -40.9450 -40.9408 -40.9370 -40.9365
   -40.9335 -40.9328 -40.9324 -40.9316 -40.9292 -40.9289 -40.9272 -40.9262
   -40.9252 -40.9247 -40.9245 -40.9241 -40.9237 -40.9222 -40.9198 -40.9165
   -40.9151 -40.9124 -40.8776 -40.8691 -40.8618 -40.8508 -40.8329 -40.8319
   -40.8272 -40.8262 -40.8226 -40.8217 -40.8181 -40.8157 -40.8087 -40.8050
   -40.8021 -40.7980 -40.7957 -40.7952 -40.7942 -40.7933 -40.7926 -40.7919
   -40.7913 -40.7893 -40.7879 -40.7872 -40.7862 -40.7854 -40.7845 -40.7835
   -40.7822 -40.7806 -40.7798 -40.7772 -40.7764 -40.7749 -40.7712 -40.7651
   -40.7605 -40.7602 -40.7591 -40.7575 -40.7546 -40.7530 -40.7521 -40.7517
   -40.7488 -40.7474 -40.7457 -40.7449 -40.7436 -40.7432 -40.7413 -40.7388
   -40.7367 -40.7355 -40.7317 -40.7302  -4.1412  -4.1182  -3.6761  -3.6248
    -3.6070  -3.5891  -2.9086  -2.7786  -2.7495  -2.7422  -2.6476  -2.5937
    -2.5834  -2.5687  -2.5601  -2.5382  -2.5297  -2.5188  -2.5154  -2.4924
    -2.4597  -2.4555  -2.4473  -2.3854  -2.3559  -2.3207  -2.3125  -2.2790
    -2.2058  -2.1525  -2.1255  -2.1253  -1.0257  -0.9897  -0.9537  -0.9177
    -0.7574  -0.6934  -0.6907  -0.6870  -0.6787  -0.6357  -0.6166  -0.4612
    -0.3695  -0.3415  -0.2906  -0.1373   0.0444   0.0561   0.0622   0.0699
     0.0782   0.1623   0.1857   0.2196   0.2965   0.3178   0.4445   0.4477
     0.4655   0.4845   0.5691   0.6511   4.7370   4.8334   4.8751   5.2195
     5.2412   5.2534   5.2602   5.2901   5.3016   5.3137   5.3335   5.3416
     5.3554   5.3583   5.3663   5.3722   5.3754   5.3867   5.3909   5.3999
     5.4164   5.4339   5.4483   5.4547   5.4714   5.5227   5.6965   5.7422
     5.7662   5.8145   6.0521   6.1620   6.1811   6.1938   6.2665   6.2858
     6.3283   6.3406   6.3695   6.4061   6.5158   6.6295   6.6547   6.6613
     6.6662   6.6822   6.7212   6.7424   6.7523   6.7646   6.7717   6.7967
     6.8238   6.8524   6.9970   7.1069   7.1132   7.1903   7.2426   7.2445
     7.2691   7.3348   7.5014   7.5349   7.5688   7.5822   7.6010   7.6038
     7.6527   7.6941   7.7001   7.7224   7.7560   7.7793   7.8201   7.8384
     7.8519   7.8693   7.8742   7.8842   7.9053   7.9093   7.9179   7.9285
     7.9355   7.9557   7.9770   7.9893   7.9968   8.0181   8.0231   8.0524
     8.1001   8.1470   8.1574   8.1613   8.1978   8.2466   8.2723   8.3023
     8.3156   8.3536   8.3658   8.3822   8.3931   8.4388   8.4509   8.4825
     8.5297   8.6482   8.7915   8.7991   8.8165   8.8345   8.8394   8.8766
     8.8827   8.8879   8.9388   8.9959   9.0283   9.0560   9.0775   9.1275
     9.1466   9.1671   9.1777   9.1893   9.2252   9.2960   9.3440   9.4001
     9.4419   9.4534   9.4634   9.5135   9.5289   9.5321   9.5444   9.5616
     9.5624   9.5756   9.5887   9.5942   9.6407   9.7439   9.7892   9.8489
     9.9034  10.0075  10.0458  10.0838  10.1014  10.1261  10.3213  10.3659
    10.3950  10.4227  10.4742  10.5464  10.5893  10.6102  10.6358  10.6460
    10.7388  10.7482  10.7837  10.7885  10.8058  10.8130  10.8323  10.8343
    10.8462  10.8783  10.8876  10.9115  10.9562  10.9674  10.9810  10.9972
    11.0093  11.0163  11.1008  11.1211  11.1625  11.1809  11.2085  11.2218
    11.2699  11.2949  11.2984  11.3042  11.3093  11.3159  11.3200  11.3312
    11.3353  11.3375  11.3537  11.3829  11.3911  11.3940  11.4230  11.4453
    11.4569  11.4641  11.4714  11.4725  11.4856  11.5171  11.5244  11.5274
    11.5334  11.5400  11.5436  11.5606  11.6056  11.6152  11.6384  11.6504
    11.6748  11.6858  11.6917  11.7324  11.7695  11.8010  11.8139  11.8268
    11.8613  11.8717  11.9017  11.9087  11.9188  11.9251  11.9328  11.9591
    11.9668  11.9726  11.9829  11.9865  11.9971  12.0004  12.0161  12.0262
    12.0492  12.0611  12.0817  12.1063  12.1612  12.2259  12.2468  12.2679
    12.3591  13.1827  13.3070  13.3212  13.3496  13.3839  13.3989  13.4988
    13.5221  13.5572  13.5845  13.5878  13.6133  13.6219  13.6276  13.6451
    13.6682  13.6912  13.7330  13.7403  13.7606  13.8027  13.8510  13.8633
    13.8666  13.8757  13.9023  13.9185  13.9274  13.9351  13.9662  13.9806
    13.9929  13.9991  14.0105  14.0215  14.0279  14.0293  14.0499  14.0618
    14.0964  14.1286  14.1343  14.1629  14.1932  14.2118  14.2432  14.2514
    14.2529  14.2601  14.2663  14.2823  14.2989  14.3108  14.3260  14.3518
    14.4242  14.4335  14.4398  14.7161  14.7826  14.8107  14.8314  14.8503
    14.8765  14.8876  14.9041  14.9516  14.9743  14.9921  15.0273  15.0686
    15.0718  15.0807  15.1004  15.1140  15.1215  15.1521  15.1662  15.1986
    15.2097  15.2507  15.2555  15.2975  15.3021  15.3088  15.3246  15.3301
    15.3629

     occupation numbers 
     1.0000   1.0000   1.0000   1.0000   1.0000   1.0000   1.0000   1.0000
     1.0000   1.0000   1.0000   1.0000   1.0000   1.0000   1.0000   1.0000
     1.0000   1.0000   1.0000   1.0000   1.0000   1.0000   1.0000   1.0000
     1.0000   1.0000   1.0000   1.0000   1.0000   1.0000   1.0000   1.0000
     1.0000   1.0000   1.0000   1.0000   1.0000   1.0000   1.0000   1.0000
     1.0000   1.0000   1.0000   1.0000   1.0000   1.0000   1.0000   1.0000
     1.0000   1.0000   1.0000   1.0000   1.0000   1.0000   1.0000   1.0000
     1.0000   1.0000   1.0000   1.0000   1.0000   1.0000   1.0000   1.0000
     1.0000   1.0000   1.0000   1.0000   1.0000   1.0000   1.0000   1.0000
     1.0000   1.0000   1.0000   1.0000   1.0000   1.0000   1.0000   1.0000
     1.0000   1.0000   1.0000   1.0000   1.0000   1.0000   1.0000   1.0000
     1.0000   1.0000   1.0000   1.0000   1.0000   1.0000   1.0000   1.0000
     1.0000   1.0000   1.0000   1.0000   1.0000   1.0000   1.0000   1.0000
     1.0000   1.0000   1.0000   1.0000   1.0000   1.0000   1.0000   1.0000
     1.0000   1.0000   1.0000   1.0000   1.0000   1.0000   1.0000   1.0000
     1.0000   1.0000   1.0000   1.0000   1.0000   1.0000   1.0000   1.0000
     1.0000   1.0000   1.0000   1.0000   1.0000   1.0000   1.0000   1.0000
     1.0000   1.0000   1.0000   1.0000   1.0000   1.0000   1.0000   1.0000
     1.0000   1.0000   1.0000   1.0000   1.0000   1.0000   1.0000   1.0000
     1.0000   1.0000   1.0000   1.0000   1.0000   1.0000   1.0000   1.0000
     1.0000   1.0000   1.0000   1.0000   1.0000   1.0000   1.0000   1.0000
     1.0000   1.0000   1.0000   1.0000   1.0000   1.0000   1.0000   1.0000
     1.0000   1.0000   1.0000   1.0000   1.0000   1.0000   1.0000   1.0000
     1.0000   1.0000   1.0000   1.0000   1.0000   1.0000   1.0000   1.0000
     1.0000   1.0000   1.0000   1.0000   1.0000   1.0000   1.0000   1.0000
     1.0000   1.0000   1.0000   1.0000   1.0000   1.0000   1.0000   1.0000
     1.0000   1.0000   1.0000   1.0000   1.0000   1.0000   1.0000   1.0000
     1.0000   1.0000   1.0000   1.0000   1.0000   1.0000   1.0000   1.0000
     1.0000   1.0000   1.0000   1.0000   1.0000   1.0000   1.0000   1.0000
     1.0000   1.0000   1.0000   1.0000   1.0000   1.0000   1.0000   1.0000
     1.0000   1.0000   1.0000   1.0000   1.0000   1.0000   1.0000   1.0000
     1.0000   1.0000   1.0000   1.0000   1.0000   1.0000   1.0000   1.0000
     1.0000   1.0000   1.0000   1.0000   1.0000   1.0000   1.0000   1.0000
     1.0000   1.0000   1.0000   1.0000   1.0000   1.0000   1.0000   1.0000
     1.0000   1.0000   1.0000   1.0000   1.0000   1.0000   1.0000   1.0000
     1.0000   1.0000   1.0000   1.0000   1.0000   1.0000   1.0000   1.0000
     1.0000   1.0000   1.0000   1.0000   1.0000   1.0000   1.0000   1.0000
     1.0000   1.0000   1.0000   1.0000   1.0000   1.0000   1.0000   1.0000
     1.0000   1.0000   1.0000   1.0000   1.0000   1.0000   1.0000   1.0000
     1.0000   1.0000   1.0000   1.0000   1.0000   1.0000   1.0000   1.0000
     1.0000   1.0000   1.0000   1.0000   1.0000   1.0000   1.0000   1.0000
     1.0000   1.0000   1.0000   1.0000   1.0000   1.0000   1.0000   1.0000
     1.0000   1.0000   1.0000   1.0000   1.0000   1.0000   1.0000   1.0000
     1.0000   1.0000   1.0000   1.0000   1.0000   1.0000   1.0000   1.0000
     1.0000   1.0000   1.0000   1.0000   1.0000   1.0000   1.0000   1.0000
     1.0000   1.0000   1.0000   1.0000   1.0000   1.0000   1.0000   1.0000
     1.0000   1.0000   1.0000   1.0000   1.0000   1.0000   1.0000   1.0000
     1.0000   1.0000   1.0000   1.0000   1.0000   1.0000   1.0000   1.0000
     1.0000   1.0000   1.0000   1.0000   1.0000   1.0000   1.0000   1.0000
     1.0000   1.0000   1.0000   1.0000   1.0000   1.0000   1.0000   1.0000
     1.0000   1.0000   1.0000   1.0000   1.0000   1.0000   1.0001   1.0001
     1.0002   1.0002   1.0003   1.0007   1.0017   1.0032   1.0041   1.0052
     1.0096   1.0114   1.0179   1.0198   1.0228   1.0247   1.0273   1.0373
     1.0405   1.0430   1.0476   1.0493   1.0541   1.0557   1.0628   1.0672
     1.0761   1.0796   1.0831   1.0812   1.0423   0.9163   0.8570   0.7897
     0.4608   0.0000   0.0000   0.0000   0.0000   0.0000   0.0000   0.0000
     0.0000   0.0000   0.0000   0.0000   0.0000   0.0000   0.0000   0.0000
     0.0000   0.0000   0.0000   0.0000   0.0000   0.0000   0.0000   0.0000
     0.0000   0.0000   0.0000   0.0000   0.0000   0.0000   0.0000   0.0000
     0.0000   0.0000   0.0000   0.0000   0.0000   0.0000   0.0000   0.0000
     0.0000   0.0000   0.0000   0.0000   0.0000   0.0000   0.0000   0.0000
     0.0000   0.0000   0.0000   0.0000   0.0000   0.0000   0.0000   0.0000
     0.0000   0.0000   0.0000   0.0000   0.0000   0.0000   0.0000   0.0000
     0.0000   0.0000   0.0000   0.0000   0.0000   0.0000   0.0000   0.0000
     0.0000   0.0000   0.0000   0.0000   0.0000   0.0000   0.0000   0.0000
     0.0000   0.0000   0.0000   0.0000   0.0000   0.0000   0.0000   0.0000
     0.0000

          k = 0.0000-0.4095 0.2186 ( 69180 PWs)   bands (ev):

   -75.3858 -75.2014 -74.9390 -74.9366 -74.9187 -74.9046 -74.8950 -74.8920
   -74.8873 -74.8806 -74.8777 -74.8711 -74.8645 -74.8590 -74.8568 -74.8566
   -74.8561 -74.8558 -74.8555 -74.8545 -74.8525 -74.8523 -74.8517 -74.8509
   -74.8501 -74.8496 -74.8480 -74.8470 -74.8464 -74.8439 -74.8437 -41.4594
   -41.4287 -41.2247 -41.1873 -41.1810 -41.0965 -41.0245 -41.0189 -40.9825
   -40.9687 -40.9554 -40.9522 -40.9479 -40.9449 -40.9408 -40.9369 -40.9365
   -40.9335 -40.9327 -40.9323 -40.9315 -40.9293 -40.9288 -40.9270 -40.9261
   -40.9252 -40.9246 -40.9244 -40.9241 -40.9235 -40.9222 -40.9197 -40.9165
   -40.9150 -40.9124 -40.8777 -40.8690 -40.8617 -40.8508 -40.8328 -40.8318
[...]
     atom   73 type  1   force =    -0.00008649    0.00007337    0.00003448
     atom   74 type  1   force =    -0.00003720   -0.00011817    0.00036382
     atom   75 type  2   force =     0.00490342   -0.00285049   -0.00002796
     atom   76 type  2   force =    -0.00477881    0.00306187    0.00000666
     atom   77 type  2   force =    -0.00500005   -0.00304133   -0.00000049
     atom   78 type  2   force =     0.00522374    0.00325791    0.00028704
     atom   79 type  1   force =    -0.00117307    0.00050820   -0.00112328
     atom   80 type  1   force =     0.00092247   -0.00079581   -0.00199079
     atom   81 type  2   force =     0.00513302   -0.00264458    0.00030270
     atom   82 type  2   force =    -0.00507594    0.00312602    0.00018999
     atom   83 type  2   force =    -0.00492516   -0.00297594    0.00010087
     atom   84 type  2   force =     0.00648280    0.00388264    0.00007183
     atom   85 type  1   force =     0.00115945   -0.00058824    0.00207217
     atom   86 type  2   force =     0.00299842   -0.01146410    0.00003927
     atom   87 type  2   force =    -0.00489839    0.00332567    0.00000579
     atom   88 type  2   force =    -0.00497017   -0.00302523   -0.00011257
     atom   89 type  2   force =     0.00648426    0.00377647    0.00001400
     atom   90 type  1   force =     0.00001745   -0.00006490    0.00119696
     atom   91 type  1   force =     0.00000010   -0.00012117   -0.00045892
     atom   92 type  2   force =     0.00515343   -0.00255718   -0.00031328
     atom   93 type  2   force =    -0.00518864    0.00318204   -0.00028422
     atom   94 type  2   force =    -0.00496248   -0.00303887    0.00007541
     atom   95 type  2   force =     0.00533730    0.00325351   -0.00029101
     atom   96 type  3   force =     0.00000000    0.00000000    0.00000000
     The Hubbard contrib.    to forces
     atom    1 type  1   force =     0.00000000    0.00000000    0.00000000
     atom    2 type  1   force =     0.00000000    0.00000000    0.00000000
     atom    3 type  2   force =     0.00000000    0.00000000    0.00000000
     atom    4 type  2   force =     0.00000000    0.00000000    0.00000000
     atom    5 type  2   force =     0.00000000    0.00000000    0.00000000
     atom    6 type  2   force =     0.00000000    0.00000000    0.00000000
     atom    7 type  1   force =     0.00000000    0.00000000    0.00000000
     atom    8 type  1   force =     0.00000000    0.00000000    0.00000000
     atom    9 type  2   force =     0.00000000    0.00000000    0.00000000
     atom   10 type  2   force =     0.00000000    0.00000000    0.00000000
     atom   11 type  2   force =     0.00000000    0.00000000    0.00000000
     atom   12 type  2   force =     0.00000000    0.00000000    0.00000000
     atom   13 type  1   force =     0.00000000    0.00000000    0.00000000
     atom   14 type  1   force =     0.00000000    0.00000000    0.00000000
     atom   15 type  2   force =     0.00000000    0.00000000    0.00000000
     atom   16 type  2   force =     0.00000000    0.00000000    0.00000000
     atom   17 type  2   force =     0.00000000    0.00000000    0.00000000
     atom   18 type  2   force =     0.00000000    0.00000000    0.00000000
     atom   19 type  1   force =     0.00000000    0.00000000    0.00000000
     atom   20 type  1   force =     0.00000000    0.00000000    0.00000000
     atom   21 type  2   force =     0.00000000    0.00000000    0.00000000
     atom   22 type  2   force =     0.00000000    0.00000000    0.00000000
     atom   23 type  2   force =     0.00000000    0.00000000    0.00000000
     atom   24 type  2   force =     0.00000000    0.00000000    0.00000000
     atom   25 type  1   force =     0.00000000    0.00000000    0.00000000
     atom   26 type  1   force =     0.00000000    0.00000000    0.00000000
     atom   27 type  2   force =     0.00000000    0.00000000    0.00000000
     atom   28 type  2   force =     0.00000000    0.00000000    0.00000000
     atom   29 type  2   force =     0.00000000    0.00000000    0.00000000
     atom   30 type  2   force =     0.00000000    0.00000000    0.00000000
     atom   31 type  1   force =     0.00000000    0.00000000    0.00000000
     atom   32 type  1   force =     0.00000000    0.00000000    0.00000000
     atom   33 type  2   force =     0.00000000    0.00000000    0.00000000
     atom   34 type  2   force =     0.00000000    0.00000000    0.00000000
     atom   35 type  2   force =     0.00000000    0.00000000    0.00000000
     atom   36 type  2   force =     0.00000000    0.00000000    0.00000000
     atom   37 type  1   force =     0.00000000    0.00000000    0.00000000
     atom   38 type  1   force =     0.00000000    0.00000000    0.00000000
     atom   39 type  2   force =     0.00000000    0.00000000    0.00000000
     atom   40 type  2   force =     0.00000000    0.00000000    0.00000000
     atom   41 type  2   force =     0.00000000    0.00000000    0.00000000
     atom   42 type  2   force =     0.00000000    0.00000000    0.00000000
     atom   43 type  1   force =     0.00000000    0.00000000    0.00000000
     atom   44 type  1   force =     0.00000000    0.00000000    0.00000000
     atom   45 type  2   force =     0.00000000    0.00000000    0.00000000
     atom   46 type  2   force =     0.00000000    0.00000000    0.00000000
     atom   47 type  2   force =     0.00000000    0.00000000    0.00000000
     atom   48 type  2   force =     0.00000000    0.00000000    0.00000000
     atom   49 type  1   force =     0.00000000    0.00000000    0.00000000
     atom   50 type  1   force =     0.00000000    0.00000000    0.00000000
     atom   51 type  2   force =     0.00000000    0.00000000    0.00000000
     atom   52 type  2   force =     0.00000000    0.00000000    0.00000000
     atom   53 type  2   force =     0.00000000    0.00000000    0.00000000
     atom   54 type  2   force =     0.00000000    0.00000000    0.00000000
     atom   55 type  1   force =     0.00000000    0.00000000    0.00000000
     atom   56 type  1   force =     0.00000000    0.00000000    0.00000000
     atom   57 type  2   force =     0.00000000    0.00000000    0.00000000
     atom   58 type  2   force =     0.00000000    0.00000000    0.00000000
     atom   59 type  2   force =     0.00000000    0.00000000    0.00000000
     atom   60 type  2   force =     0.00000000    0.00000000    0.00000000
     atom   61 type  1   force =     0.00000000    0.00000000    0.00000000
     atom   62 type  1   force =     0.00000000    0.00000000    0.00000000
     atom   63 type  2   force =     0.00000000    0.00000000    0.00000000
     atom   64 type  2   force =     0.00000000    0.00000000    0.00000000
     atom   65 type  2   force =     0.00000000    0.00000000    0.00000000
     atom   66 type  2   force =     0.00000000    0.00000000    0.00000000
     atom   67 type  1   force =     0.00000000    0.00000000    0.00000000
     atom   68 type  1   force =     0.00000000    0.00000000    0.00000000
     atom   69 type  2   force =     0.00000000    0.00000000    0.00000000
     atom   70 type  2   force =     0.00000000    0.00000000    0.00000000
     atom   71 type  2   force =     0.00000000    0.00000000    0.00000000
     atom   72 type  2   force =     0.00000000    0.00000000    0.00000000
     atom   73 type  1   force =     0.00000000    0.00000000    0.00000000
     atom   74 type  1   force =     0.00000000    0.00000000    0.00000000
     atom   75 type  2   force =     0.00000000    0.00000000    0.00000000
     atom   76 type  2   force =     0.00000000    0.00000000    0.00000000
     atom   77 type  2   force =     0.00000000    0.00000000    0.00000000
     atom   78 type  2   force =     0.00000000    0.00000000    0.00000000
     atom   79 type  1   force =     0.00000000    0.00000000    0.00000000
     atom   80 type  1   force =     0.00000000    0.00000000    0.00000000
     atom   81 type  2   force =     0.00000000    0.00000000    0.00000000
     atom   82 type  2   force =     0.00000000    0.00000000    0.00000000
     atom   83 type  2   force =     0.00000000    0.00000000    0.00000000
     atom   84 type  2   force =     0.00000000    0.00000000    0.00000000
     atom   85 type  1   force =     0.00000000    0.00000000    0.00000000
     atom   86 type  2   force =     0.00000000    0.00000000    0.00000000
     atom   87 type  2   force =     0.00000000    0.00000000    0.00000000
     atom   88 type  2   force =     0.00000000    0.00000000    0.00000000
     atom   89 type  2   force =     0.00000000    0.00000000    0.00000000
     atom   90 type  1   force =     0.00000000    0.00000000    0.00000000
     atom   91 type  1   force =     0.00000000    0.00000000    0.00000000
     atom   92 type  2   force =     0.00000000    0.00000000    0.00000000
     atom   93 type  2   force =     0.00000000    0.00000000    0.00000000
     atom   94 type  2   force =     0.00000000    0.00000000    0.00000000
     atom   95 type  2   force =     0.00000000    0.00000000    0.00000000
     atom   96 type  3   force =     0.00000000    0.00000000    0.00000000
     The SCF correction term to forces
     atom    1 type  1   force =    -0.00000057   -0.00000480   -0.00002742
     atom    2 type  1   force =    -0.00002965    0.00000559   -0.00004336
     atom    3 type  2   force =     0.00000314    0.00000796   -0.00001273
     atom    4 type  2   force =    -0.00001582    0.00000081   -0.00002215
     atom    5 type  2   force =    -0.00002589   -0.00000082   -0.00002236
     atom    6 type  2   force =     0.00000225    0.00000383   -0.00001283
     atom    7 type  1   force =     0.00001118   -0.00000397   -0.00002195
     atom    8 type  1   force =    -0.00000029    0.00000984    0.00003154
     atom    9 type  2   force =     0.00000936    0.00000412   -0.00000554
     atom   10 type  2   force =    -0.00003059   -0.00002125    0.00000235
     atom   11 type  2   force =    -0.00000666   -0.00000166    0.00000839
     atom   12 type  2   force =     0.00000381    0.00000441    0.00001118
     atom   13 type  1   force =     0.00002649    0.00000010    0.00002756
     atom   14 type  1   force =     0.00000798    0.00004198    0.00002663
     atom   15 type  2   force =     0.00001946    0.00000823    0.00001326
     atom   16 type  2   force =    -0.00000756    0.00000836    0.00002202
     atom   17 type  2   force =    -0.00000732   -0.00000432    0.00001394
     atom   18 type  2   force =     0.00000640    0.00000794    0.00000546
     atom   19 type  1   force =     0.00000892   -0.00000281    0.00002099
     atom   20 type  1   force =    -0.00001214    0.00003346   -0.00001697
     atom   21 type  2   force =     0.00001174    0.00001430    0.00000478
     atom   22 type  2   force =    -0.00001768   -0.00000098   -0.00000102
     atom   23 type  2   force =    -0.00001714    0.00000368   -0.00000319
     atom   24 type  2   force =     0.00000438    0.00000788   -0.00000391
     atom   25 type  1   force =     0.00000222    0.00000568   -0.00004862
     atom   26 type  1   force =    -0.00003562    0.00000664   -0.00004519
     atom   27 type  2   force =    -0.00000577   -0.00001648   -0.00001591
     atom   28 type  2   force =    -0.00000572    0.00000019   -0.00001550
     atom   29 type  2   force =    -0.00000820   -0.00000621   -0.00001284
     atom   30 type  2   force =    -0.00003174    0.00001439   -0.00003850
     atom   31 type  1   force =     0.00001865    0.00001494   -0.00002558
     atom   32 type  1   force =     0.00000425    0.00000848    0.00005314
     atom   33 type  2   force =    -0.00000239   -0.00000528   -0.00000315
     atom   34 type  2   force =    -0.00001392    0.00001041    0.00000330
     atom   35 type  2   force =     0.00000553   -0.00001209    0.00000280
     atom   36 type  2   force =    -0.00002060    0.00001760    0.00005072
     atom   37 type  1   force =     0.00002656    0.00001435    0.00006347
     atom   38 type  1   force =     0.00001200    0.00000740    0.00000127
     atom   39 type  2   force =     0.00002325   -0.00000950    0.00001500
     atom   40 type  2   force =    -0.00001819   -0.00000823    0.00001512
     atom   41 type  2   force =     0.00000869   -0.00001563    0.00001092
     atom   42 type  2   force =     0.00000293    0.00000628   -0.00001567
     atom   43 type  1   force =     0.00001104    0.00000725    0.00001814
     atom   44 type  1   force =    -0.00001766   -0.00002489   -0.00000994
     atom   45 type  2   force =     0.00000130   -0.00001461    0.00000453
     atom   46 type  2   force =    -0.00000991   -0.00000429   -0.00000227
     atom   47 type  2   force =    -0.00000533   -0.00000935   -0.00000075
     atom   48 type  2   force =    -0.00001261    0.00000282   -0.00000222
     atom   49 type  1   force =     0.00000150   -0.00000543   -0.00003158
     atom   50 type  1   force =     0.00003615   -0.00001472   -0.00006141
     atom   51 type  2   force =     0.00000550   -0.00000205   -0.00001735
     atom   52 type  2   force =     0.00000642    0.00001711   -0.00001812
     atom   53 type  2   force =     0.00002753   -0.00000970   -0.00004401
     atom   54 type  2   force =     0.00000956    0.00000127   -0.00001552
     atom   55 type  1   force =    -0.00001127   -0.00000727   -0.00000937
     atom   56 type  1   force =     0.00001242   -0.00004076    0.00003905
     atom   57 type  2   force =     0.00000417   -0.00001572   -0.00000325
     atom   58 type  2   force =     0.00001363    0.00000412   -0.00001189
     atom   59 type  2   force =     0.00000073   -0.00001260    0.00004206
     atom   60 type  2   force =     0.00000500    0.00000361   -0.00000144
     atom   61 type  1   force =    -0.00003128   -0.00001534    0.00003326
     atom   62 type  1   force =    -0.00000690   -0.00000530    0.00002722
     atom   63 type  2   force =    -0.00000684    0.00000618    0.00001754
     atom   64 type  2   force =    -0.00000243    0.00000880    0.00001929
     atom   65 type  2   force =    -0.00001415   -0.00000129   -0.00001002
     atom   66 type  2   force =     0.00000078    0.00000956    0.00001589
     atom   67 type  1   force =    -0.00000769   -0.00000291    0.00000743
     atom   68 type  1   force =     0.00001531    0.00002192   -0.00000341
     atom   69 type  2   force =     0.00000223    0.00000337    0.00000321
     atom   70 type  2   force =     0.00000467    0.00001563    0.00001115
     atom   71 type  2   force =     0.00001067   -0.00000145   -0.00000130
     atom   72 type  2   force =     0.00000552    0.00000665    0.00000061
     atom   73 type  1   force =    -0.00000395    0.00000636   -0.00009648
     atom   74 type  1   force =     0.00003134   -0.00000267   -0.00005216
     atom   75 type  2   force =     0.00001526    0.00000139   -0.00002129
     atom   76 type  2   force =    -0.00000329   -0.00000959   -0.00001208
     atom   77 type  2   force =    -0.00000295   -0.00000868   -0.00001492
     atom   78 type  2   force =     0.00003002    0.00000836   -0.00002604
     atom   79 type  1   force =    -0.00002952    0.00000872    0.00000734
     atom   80 type  1   force =     0.00001792   -0.00000795    0.00000316
     atom   81 type  2   force =     0.00002270    0.00002595   -0.00000256
     atom   82 type  2   force =    -0.00000334   -0.00000749   -0.00000700
     atom   83 type  2   force =    -0.00001125   -0.00000758    0.00000624
     atom   84 type  2   force =     0.00002855    0.00001985    0.00000695
     atom   85 type  1   force =     0.00000216   -0.00004058    0.00004937
     atom   86 type  2   force =    -0.00000634   -0.00001554    0.00002156
     atom   87 type  2   force =    -0.00000439   -0.00000989    0.00001226
     atom   88 type  2   force =    -0.00001357   -0.00000975    0.00001037
     atom   89 type  2   force =     0.00001689    0.00001070    0.00001813
     atom   90 type  1   force =    -0.00001298   -0.00000231    0.00002013
     atom   91 type  1   force =     0.00001548   -0.00002930   -0.00000841
     atom   92 type  2   force =     0.00001453    0.00000263    0.00000420
     atom   93 type  2   force =    -0.00000756   -0.00001612    0.00000733
     atom   94 type  2   force =    -0.00000419   -0.00001079   -0.00000179
     atom   95 type  2   force =     0.00001878    0.00000012   -0.00000124
     atom   96 type  3   force =    -0.00000123    0.00000005    0.00000739

     Total force =     0.002472     Total SCF correction =     0.000312
     SCF correction compared to forces is large: reduce conv_thr to get better values

     Writing all to output data dir /tmp/neb_canonical_marc_96at_qe_VFe/image_04/tmp/image_04.save/ :
     XML data file, charge density, pseudopotentials, collected wavefunctions
 
     init_run     :      7.99s CPU     13.14s WALL (       1 calls)
     electrons    :    374.81s CPU    492.37s WALL (       1 calls)
     forces       :      3.73s CPU      4.78s WALL (       1 calls)

     Called by init_run:
     wfcinit      :      5.63s CPU      8.95s WALL (       1 calls)
     wfcinit:atom :      0.15s CPU      0.15s WALL (      16 calls)
     wfcinit:wfcr :      4.56s CPU      4.82s WALL (      16 calls)
     potinit      :      0.09s CPU      0.15s WALL (       1 calls)
     hinit0       :      2.01s CPU      1.80s WALL (       1 calls)

     Called by electrons:
     c_bands      :    322.31s CPU    406.52s WALL (      22 calls)
     sum_band     :     46.93s CPU     75.21s WALL (      22 calls)
     v_of_rho     :      0.96s CPU      0.71s WALL (      23 calls)
     v_h          :      0.42s CPU      0.21s WALL (      23 calls)
     v_xc         :      0.56s CPU      0.53s WALL (      24 calls)
     mix_rho      :      3.71s CPU      8.99s WALL (      22 calls)

     Called by c_bands:
     init_us_2    :      4.01s CPU      4.60s WALL (     736 calls)
     cegterg      :    282.01s CPU    282.55s WALL (     352 calls)

     Called by sum_band:
     sum_band:wei :      0.28s CPU      0.29s WALL (      22 calls)
     sum_band:loo :     46.27s CPU     74.42s WALL (      22 calls)
     sum_band:buf :     16.67s CPU     44.87s WALL (     352 calls)
     sum_band:ini :      1.97s CPU      2.02s WALL (     352 calls)

     Called by *egterg:
     cdiaghg      :     35.27s CPU     35.89s WALL (    1627 calls)
                                       35.88s GPU  (    1627 calls)
     cegterg:over :     38.00s CPU     38.07s WALL (    1275 calls)
     cegterg:upda :     14.39s CPU     14.39s WALL (    1275 calls)
     cegterg:last :     17.95s CPU     17.97s WALL (     692 calls)
     h_psi        :    157.58s CPU    157.79s WALL (    1643 calls)
     g_psi        :      0.47s CPU      0.47s WALL (    1275 calls)

     Called by h_psi:
     h_psi:calbec :      0.12s CPU      0.16s WALL (    1643 calls)
     vloc_psi     :    125.54s CPU    125.47s WALL (    1643 calls)
                                      125.46s GPU  (    1643 calls)
     add_vuspsi   :     30.94s CPU     31.10s WALL (    1643 calls)

     General routines
     calbec       :      0.12s CPU      0.16s WALL (    1707 calls)
     fft          :      0.01s CPU      0.04s WALL (     452 calls)
                                        0.04s GPU  (     452 calls)
     ffts         :      0.01s CPU      0.06s WALL (     611 calls)
                                        0.05s GPU  (     611 calls)
     fftw         :      0.94s CPU    111.86s WALL (   69912 calls)
                                      111.24s GPU  (   69912 calls)
     davcio       :      1.42s CPU    119.08s WALL (    1534 calls)
 
     Parallel routines
 
     PWSCF        :   6m27.64s CPU   8m41.85s WALL

 
   This run was terminated on:  14: 3:22  29May2026            

=------------------------------------------------------------------------------=
   JOB DONE.
=------------------------------------------------------------------------------=
