
     Program PWSCF v.7.5 starts on 29May2026 at 15: 7:34 

     This program is part of the open-source Quantum ESPRESSO suite
     for quantum simulation of materials; please cite
         "P. Giannozzi et al., J. Phys.:Condens. Matter 21 395502 (2009);
         "P. Giannozzi et al., J. Phys.:Condens. Matter 29 465901 (2017);
         "P. Giannozzi et al., J. Chem. Phys. 152 154105 (2020);
          URL http://www.quantum-espresso.org", 
     in publications or presentations arising from this work. More details at
     http://www.quantum-espresso.org/quote

     Parallel version (MPI & OpenMP), running on       8 processor cores
     Number of MPI processes:                 1
     Threads/MPI process:                     8

     MPI processes distributed on     1 nodes
     245823 MiB available memory on the printing compute node when the environment starts
 
     Reading input from espresso.pwi
Warning: card &CELL ignored
Warning: card &FCP ignored
Warning: card &RISM ignored

     Current dimensions of program PWSCF are:
     Max number of different atomic species (ntypx) = 10
     Max number of k-points (npk) =  40000
     Max angular momentum in pseudopotentials (lmaxx) =  4
 
     Subspace diagonalization in iterative solution of the eigenvalue problem:
     a serial algorithm will be used

 
     G-vector sticks info
     --------------------
     sticks:   dense  smooth     PW     G-vecs:    dense   smooth      PW
     Sum        6591    6591   1755               553421   553421   76211
 
     Using Slab Decomposition
 


     bravais-lattice index     =            0
     lattice parameter (alat)  =      16.7921  a.u.
     unit-cell volume          =    8814.7061 (a.u.)^3
     number of atoms/cell      =           96
     number of atomic types    =            3
     number of electrons       =       881.00
     number of Kohn-Sham states=          529
     kinetic-energy cutoff     =      60.0000  Ry
     charge density cutoff     =     240.0000  Ry
     scf convergence threshold =      1.0E-07
     mixing beta               =       0.2000
     number of iterations used =           12  local-TF  mixing
     Exchange-correlation= PBE
                           (   1   4   3   4   0   0   0)

     GPU acceleration is ACTIVE.  1 visible GPUs per MPI rank


     GPU used by master process:

        Device Number: 0
        Device name: NVIDIA A100-SXM4-40GB
        Compute capability : 80
        Ratio of single to double precision performance  : 2
        Memory Clock Rate (KHz): 1215000
        Memory Bus Width (bits): 5120
        Peak Memory Bandwidth (GB/s): ******

     celldm(1)=  16.792106  celldm(2)=   0.000000  celldm(3)=   0.000000
     celldm(4)=   0.000000  celldm(5)=   0.000000  celldm(6)=   0.000000

     crystal axes: (cart. coord. in units of alat)
               a(1) = (   1.000000   0.000000   0.000000 )  
               a(2) = (   0.000000   1.221022   0.000000 )  
               a(3) = (   0.000000   0.000000   1.524646 )  

     reciprocal axes: (cart. coord. in units 2 pi/alat)
               b(1) = (  1.000000  0.000000  0.000000 )  
               b(2) = (  0.000000  0.818986  0.000000 )  
               b(3) = (  0.000000  0.000000  0.655890 )  


     PseudoPot. # 1 for Fe read from file:
     /opt/pp/oncv_pbe/Fe.upf
     MD5 check sum: a5f07f5dca5be6cacb81ceb54992e4ae
     Pseudo is Norm-conserving + core correction, Zval = 16.0
     Generated using ONCVPSP code by D. R. Hamann
     Using radial grid of 1426 points,  6 beta functions with: 
                l(1) =   0
                l(2) =   0
                l(3) =   1
                l(4) =   1
                l(5) =   2
                l(6) =   2

     PseudoPot. # 2 for S  read from file:
     /opt/pp/oncv_pbe/S.upf
     MD5 check sum: 6027e7704d67ae28863b2247926ce6f3
     Pseudo is Norm-conserving + core correction, Zval =  6.0
     Generated using ONCVPSP code by D. R. Hamann
     Using radial grid of 1146 points,  6 beta functions with: 
                l(1) =   0
                l(2) =   0
                l(3) =   1
                l(4) =   1
                l(5) =   2
                l(6) =   2

     PseudoPot. # 3 for H  read from file:
     /opt/pp/oncv_pbe/H.upf
     MD5 check sum: e96aa7e3e4a958db16958554ea960e2a
     Pseudo is Norm-conserving, Zval =  1.0
     Generated using ONCVPSP code by D. R. Hamann
     Using radial grid of 1166 points,  3 beta functions with: 
                l(1) =   0
                l(2) =   0
                l(3) =   1

     atomic species   valence    mass     pseudopotential
     Fe               16.00    55.84500     Fe( 1.00)
     S                 6.00    32.06000     S ( 1.00)
     H                 1.00     1.00800     H ( 1.00)

     Starting magnetic structure 
     atomic species   magnetization
     Fe              0.065
     S               0.000
     H               0.000

     No symmetry found


                                    s                        frac. trans.

      isym =  1     identity                                     

 cryst.   s( 1) = (     1          0          0      )
                  (     0          1          0      )
                  (     0          0          1      )

 cart.    s( 1) = (  1.0000000  0.0000000  0.0000000 )
                  (  0.0000000  1.0000000  0.0000000 )
                  (  0.0000000  0.0000000  1.0000000 )


   Cartesian axes

     site n.     atom                  positions (alat units)
         1        Fe     tau(   1) = (   0.0007988  -0.0002694   0.0005108  )
         2        Fe     tau(   2) = (   0.2512699   0.3047974   0.1914804  )
         3        S      tau(   3) = (   0.1052117   0.2284334   0.0004216  )
         4        S      tau(   4) = (   0.3969250   0.3812290   0.0004461  )
         5        S      tau(   5) = (   0.1471040   0.5330242   0.1910999  )
         6        S      tau(   6) = (   0.3547136   0.0761219   0.1910879  )
         7        Fe     tau(   7) = (   0.0007772  -0.0009226   0.3816360  )
         8        Fe     tau(   8) = (   0.2502037   0.3036061   0.5716608  )
         9        S      tau(   9) = (   0.1037877   0.2270515   0.3805878  )
        10        S      tau(  10) = (   0.3986456   0.3798859   0.3819994  )
        11        S      tau(  11) = (   0.1418534   0.5307542   0.5712248  )
        12        S      tau(  12) = (   0.3545125   0.0747799   0.5720441  )
        13        Fe     tau(  13) = (   0.0009117  -0.0007594   0.7629319  )
        14        Fe     tau(  14) = (   0.2508129   0.3035157   0.9543062  )
        15        S      tau(  15) = (   0.1038903   0.2277251   0.7633393  )
        16        S      tau(  16) = (   0.3949013   0.3741670   0.7642623  )
        17        S      tau(  17) = (   0.1474355   0.5354421   0.9551263  )
        18        S      tau(  18) = (   0.3542138   0.0752324   0.9540504  )
        19        Fe     tau(  19) = (   0.0006907  -0.0001281   1.1442562  )
        20        Fe     tau(  20) = (   0.2513712   0.3052427   1.3342044  )
        21        S      tau(  21) = (   0.1037903   0.2278158   1.1449506  )
        22        S      tau(  22) = (   0.3979781   0.3805801   1.1428262  )
        23        S      tau(  23) = (   0.1474425   0.5333082   1.3344437  )
        24        S      tau(  24) = (   0.3547441   0.0764625   1.3347347  )
        25        Fe     tau(  25) = (   0.0008490   0.6101461   0.0004989  )
        26        Fe     tau(  26) = (   0.2506345   0.9155645   0.1909204  )
        27        S      tau(  27) = (   0.1046459   0.8389206   0.0005810  )
        28        S      tau(  28) = (   0.3967112   0.9921850   0.0006769  )
        29        S      tau(  29) = (   0.1467516   1.1440823   0.1907270  )
        30        S      tau(  30) = (   0.3545201   0.6867976   0.1909181  )
        31        Fe     tau(  31) = (   0.0005366   0.6096701   0.3801275  )
        32        Fe     tau(  32) = (   0.2500282   0.9148644   0.5718082  )
        33        S      tau(  33) = (   0.1026393   0.8392961   0.3804149  )
        34        S      tau(  34) = (   0.3964337   0.9924721   0.3808863  )
        35        S      tau(  35) = (   0.1466471   1.1437081   0.5724874  )
        36        S      tau(  36) = (   0.3450846   0.6887483   0.5584240  )
        37        Fe     tau(  37) = (   0.0005173   0.6094134   0.7629282  )
        38        Fe     tau(  38) = (   0.2487443   0.9157363   0.9559322  )
        39        S      tau(  39) = (   0.1032726   0.8390900   0.7633880  )
        40        S      tau(  40) = (   0.4002753   0.9904661   0.7643243  )
        41        S      tau(  41) = (   0.1466283   1.1443453   0.9537983  )
        42        S      tau(  42) = (   0.3458650   0.6886679   0.9592925  )
        43        Fe     tau(  43) = (   0.0005284   0.6103997   1.1464362  )
        44        Fe     tau(  44) = (   0.2508029   0.9157023   1.3347969  )
        45        S      tau(  45) = (   0.1024137   0.8401272   1.1457270  )
        46        S      tau(  46) = (   0.3961618   0.9926663   1.1447473  )
        47        S      tau(  47) = (   0.1468262   1.1444443   1.3350723  )
        48        S      tau(  48) = (   0.3544690   0.6871180   1.3347316  )
        49        Fe     tau(  49) = (   0.5007461  -0.0002816   0.0005479  )
        50        Fe     tau(  50) = (   0.7507727   0.3047275   0.1907646  )
        51        S      tau(  51) = (   0.6046471   0.2282995   0.0003959  )
        52        S      tau(  52) = (   0.8969003   0.3814616   0.0004385  )
        53        S      tau(  53) = (   0.6472903   0.5332630   0.1906417  )
        54        S      tau(  54) = (   0.8546610   0.0759388   0.1906973  )
        55        Fe     tau(  55) = (   0.5006577  -0.0005396   0.3815436  )
        56        Fe     tau(  56) = (   0.7524104   0.3044844   0.5706683  )
        57        S      tau(  57) = (   0.6053499   0.2279066   0.3813231  )
        58        S      tau(  58) = (   0.8975808   0.3799153   0.3801455  )
        59        S      tau(  59) = (   0.6537897   0.5327188   0.5681665  )
        60        S      tau(  60) = (   0.8545328   0.0758684   0.5723986  )
        61        Fe     tau(  61) = (   0.5005726  -0.0000157   0.7630790  )
        62        Fe     tau(  62) = (   0.7521446   0.3052784   0.9550142  )
        63        S      tau(  63) = (   0.6015753   0.2301174   0.7627532  )
        64        S      tau(  64) = (   0.8975049   0.3805556   0.7627994  )
        65        S      tau(  65) = (   0.6555942   0.5314856   0.9606160  )
        66        S      tau(  66) = (   0.8545477   0.0759946   0.9535158  )
        67        Fe     tau(  67) = (   0.5007131  -0.0001104   1.1444073  )
        68        Fe     tau(  68) = (   0.7506797   0.3050103   1.3344678  )
        69        S      tau(  69) = (   0.6049691   0.2281040   1.1445238  )
        70        S      tau(  70) = (   0.8988407   0.3806465   1.1456114  )
        71        S      tau(  71) = (   0.6470568   0.5335989   1.3347988  )
        72        S      tau(  72) = (   0.8546351   0.0762710   1.3350612  )
        73        Fe     tau(  73) = (   0.5009182   0.6102146   0.0000558  )
        74        Fe     tau(  74) = (   0.7503906   0.9154051   0.1915837  )
        75        S      tau(  75) = (   0.6046079   0.8392909   0.0005475  )
        76        S      tau(  76) = (   0.8964207   0.9921170   0.0004877  )
        77        S      tau(  77) = (   0.6468580   1.1441626   0.1910204  )
        78        S      tau(  78) = (   0.8542852   0.6871554   0.1910832  )
        79        Fe     tau(  79) = (   0.5017326   0.6098384   0.3835548  )
        80        Fe     tau(  80) = (   0.7498122   0.9164494   0.5720298  )
        81        S      tau(  81) = (   0.6043546   0.8395475   0.3819581  )
        82        S      tau(  82) = (   0.8967216   0.9927078   0.3816213  )
        83        S      tau(  83) = (   0.6468931   1.1449428   0.5721305  )
        84        S      tau(  84) = (   0.8515134   0.6839443   0.5715569  )
        85        Fe     tau(  85) = (   0.7501831   0.9167829   0.9541749  )
        86        S      tau(  86) = (   0.6049648   0.8452090   0.7642653  )
        87        S      tau(  87) = (   0.8967470   0.9917953   0.7628383  )
        88        S      tau(  88) = (   0.6471034   1.1453651   0.9539607  )
        89        S      tau(  89) = (   0.8530513   0.6848711   0.9549005  )
        90        Fe     tau(  90) = (   0.5010728   0.6102100   1.1381849  )
        91        Fe     tau(  91) = (   0.7500496   0.9155667   1.3342875  )
        92        S      tau(  92) = (   0.6034089   0.8401291   1.1428855  )
        93        S      tau(  93) = (   0.8974556   0.9928639   1.1448663  )
        94        S      tau(  94) = (   0.6467744   1.1442998   1.3347459  )
        95        S      tau(  95) = (   0.8539885   0.6874925   1.3345220  )
        96        H      tau(  96) = (   0.3960619   0.6313872   0.6946287  )

   Crystallographic axes

     site n.     atom                  positions (cryst. coord.)
         1        Fe     tau(   1) = (  0.0007988 -0.0002206  0.0003350  )
         2        Fe     tau(   2) = (  0.2512699  0.2496248  0.1255901  )
         3        S      tau(   3) = (  0.1052117  0.1870838  0.0002765  )
         4        S      tau(   4) = (  0.3969250  0.3122212  0.0002926  )
         5        S      tau(   5) = (  0.1471040  0.4365395  0.1253405  )
         6        S      tau(   6) = (  0.3547136  0.0623428  0.1253327  )
         7        Fe     tau(   7) = (  0.0007772 -0.0007556  0.2503113  )
         8        Fe     tau(   8) = (  0.2502037  0.2486492  0.3749467  )
         9        S      tau(   9) = (  0.1037877  0.1859521  0.2496238  )
        10        S      tau(  10) = (  0.3986456  0.3111213  0.2505497  )
        11        S      tau(  11) = (  0.1418534  0.4346804  0.3746608  )
        12        S      tau(  12) = (  0.3545125  0.0612437  0.3751981  )
        13        Fe     tau(  13) = (  0.0009117 -0.0006220  0.5003995  )
        14        Fe     tau(  14) = (  0.2508129  0.2485751  0.6259201  )
        15        S      tau(  15) = (  0.1038903  0.1865037  0.5006668  )
        16        S      tau(  16) = (  0.3949013  0.3064376  0.5012721  )
        17        S      tau(  17) = (  0.1474355  0.4385197  0.6264579  )
        18        S      tau(  18) = (  0.3542138  0.0616143  0.6257523  )
        19        Fe     tau(  19) = (  0.0006907 -0.0001049  0.7505064  )
        20        Fe     tau(  20) = (  0.2513712  0.2499896  0.8750916  )
        21        S      tau(  21) = (  0.1037903  0.1865780  0.7509618  )
        22        S      tau(  22) = (  0.3979781  0.3116899  0.7495685  )
        23        S      tau(  23) = (  0.1474425  0.4367720  0.8752485  )
        24        S      tau(  24) = (  0.3547441  0.0626217  0.8754394  )
        25        Fe     tau(  25) = (  0.0008490  0.4997012  0.0003272  )
        26        Fe     tau(  26) = (  0.2506345  0.7498347  0.1252228  )
        27        S      tau(  27) = (  0.1046459  0.6870643  0.0003811  )
        28        S      tau(  28) = (  0.3967112  0.8125858  0.0004440  )
        29        S      tau(  29) = (  0.1467516  0.9369876  0.1250960  )
        30        S      tau(  30) = (  0.3545201  0.5624778  0.1252213  )
        31        Fe     tau(  31) = (  0.0005366  0.4993114  0.2493219  )
        32        Fe     tau(  32) = (  0.2500282  0.7492613  0.3750434  )
        33        S      tau(  33) = (  0.1026393  0.6873719  0.2495104  )
        34        S      tau(  34) = (  0.3964337  0.8128209  0.2498196  )
        35        S      tau(  35) = (  0.1466471  0.9366811  0.3754889  )
        36        S      tau(  36) = (  0.3450846  0.5640753  0.3662648  )
        37        Fe     tau(  37) = (  0.0005173  0.4991011  0.5003971  )
        38        Fe     tau(  38) = (  0.2487443  0.7499753  0.6269865  )
        39        S      tau(  39) = (  0.1032726  0.6872031  0.5006987  )
        40        S      tau(  40) = (  0.4002753  0.8111781  0.5013128  )
        41        S      tau(  41) = (  0.1466283  0.9372030  0.6255869  )
        42        S      tau(  42) = (  0.3458650  0.5640095  0.6291905  )
        43        Fe     tau(  43) = (  0.0005284  0.4999089  0.7519362  )
        44        Fe     tau(  44) = (  0.2508029  0.7499475  0.8754802  )
        45        S      tau(  45) = (  0.1024137  0.6880525  0.7514710  )
        46        S      tau(  46) = (  0.3961618  0.8129800  0.7508285  )
        47        S      tau(  47) = (  0.1468262  0.9372840  0.8756608  )
        48        S      tau(  48) = (  0.3544690  0.5627401  0.8754373  )
        49        Fe     tau(  49) = (  0.5007461 -0.0002307  0.0003593  )
        50        Fe     tau(  50) = (  0.7507727  0.2495676  0.1251206  )
        51        S      tau(  51) = (  0.6046471  0.1869741  0.0002596  )
        52        S      tau(  52) = (  0.8969003  0.3124118  0.0002876  )
        53        S      tau(  53) = (  0.6472903  0.4367350  0.1250400  )
        54        S      tau(  54) = (  0.8546610  0.0621928  0.1250765  )
        55        Fe     tau(  55) = (  0.5006577 -0.0004419  0.2502507  )
        56        Fe     tau(  56) = (  0.7524104  0.2493685  0.3742957  )
        57        S      tau(  57) = (  0.6053499  0.1866523  0.2501061  )
        58        S      tau(  58) = (  0.8975808  0.3111454  0.2493337  )
        59        S      tau(  59) = (  0.6537897  0.4362893  0.3726548  )
        60        S      tau(  60) = (  0.8545328  0.0621352  0.3754306  )
        61        Fe     tau(  61) = (  0.5005726 -0.0000128  0.5004960  )
        62        Fe     tau(  62) = (  0.7521446  0.2500188  0.6263845  )
        63        S      tau(  63) = (  0.6015753  0.1884630  0.5002823  )
        64        S      tau(  64) = (  0.8975049  0.3116698  0.5003126  )
        65        S      tau(  65) = (  0.6555942  0.4352794  0.6300586  )
        66        S      tau(  66) = (  0.8545477  0.0622385  0.6254017  )
        67        Fe     tau(  67) = (  0.5007131 -0.0000904  0.7506055  )
        68        Fe     tau(  68) = (  0.7506797  0.2497992  0.8752643  )
        69        S      tau(  69) = (  0.6049691  0.1868140  0.7506819  )
        70        S      tau(  70) = (  0.8988407  0.3117442  0.7513952  )
        71        S      tau(  71) = (  0.6470568  0.4370101  0.8754814  )
        72        S      tau(  72) = (  0.8546351  0.0624649  0.8756535  )
        73        Fe     tau(  73) = (  0.5009182  0.4997573  0.0000366  )
        74        Fe     tau(  74) = (  0.7503906  0.7497041  0.1256579  )
        75        S      tau(  75) = (  0.6046079  0.6873677  0.0003591  )
        76        S      tau(  76) = (  0.8964207  0.8125301  0.0003199  )
        77        S      tau(  77) = (  0.6468580  0.9370534  0.1252884  )
        78        S      tau(  78) = (  0.8542852  0.5627708  0.1253296  )
        79        Fe     tau(  79) = (  0.5017326  0.4994492  0.2515698  )
        80        Fe     tau(  80) = (  0.7498122  0.7505594  0.3751887  )
        81        S      tau(  81) = (  0.6043546  0.6875778  0.2505226  )
        82        S      tau(  82) = (  0.8967216  0.8130139  0.2503017  )
        83        S      tau(  83) = (  0.6468931  0.9376923  0.3752547  )
        84        S      tau(  84) = (  0.8515134  0.5601410  0.3748785  )
        85        Fe     tau(  85) = (  0.7501831  0.7508326  0.6258340  )
        86        S      tau(  86) = (  0.6049648  0.6922145  0.5012741  )
        87        S      tau(  87) = (  0.8967470  0.8122666  0.5003381  )
        88        S      tau(  88) = (  0.6471034  0.9380382  0.6256934  )
        89        S      tau(  89) = (  0.8530513  0.5609000  0.6263098  )
        90        Fe     tau(  90) = (  0.5010728  0.4997535  0.7465243  )
        91        Fe     tau(  91) = (  0.7500496  0.7498365  0.8751460  )
        92        S      tau(  92) = (  0.6034089  0.6880542  0.7496074  )
        93        S      tau(  93) = (  0.8974556  0.8131418  0.7509066  )
        94        S      tau(  94) = (  0.6467744  0.9371657  0.8754467  )
        95        S      tau(  95) = (  0.8539885  0.5630468  0.8752998  )
        96        H      tau(  96) = (  0.3960619  0.5170974  0.4556001  )

     number of k points=     8  Marzari-Vanderbilt smearing, width (Ry)=  0.0150
                       cart. coord. in units 2pi/alat
        k(    1) = (   0.0000000   0.0000000   0.0000000), wk =   0.0833333
        k(    2) = (   0.0000000   0.0000000   0.2186301), wk =   0.1666667
        k(    3) = (   0.0000000  -0.4094931   0.0000000), wk =   0.0833333
        k(    4) = (   0.0000000  -0.4094931   0.2186301), wk =   0.1666667
        k(    5) = (  -0.5000000   0.0000000   0.0000000), wk =   0.0833333
        k(    6) = (  -0.5000000   0.0000000   0.2186301), wk =   0.1666667
        k(    7) = (  -0.5000000  -0.4094931   0.0000000), wk =   0.0833333
        k(    8) = (  -0.5000000  -0.4094931   0.2186301), wk =   0.1666667

                       cryst. coord.
        k(    1) = (   0.0000000   0.0000000   0.0000000), wk =   0.0833333
        k(    2) = (   0.0000000   0.0000000   0.3333333), wk =   0.1666667
        k(    3) = (   0.0000000  -0.5000000   0.0000000), wk =   0.0833333
        k(    4) = (   0.0000000  -0.5000000   0.3333333), wk =   0.1666667
        k(    5) = (  -0.5000000   0.0000000   0.0000000), wk =   0.0833333
        k(    6) = (  -0.5000000   0.0000000   0.3333333), wk =   0.1666667
        k(    7) = (  -0.5000000  -0.5000000   0.0000000), wk =   0.0833333
        k(    8) = (  -0.5000000  -0.5000000   0.3333333), wk =   0.1666667

     Dense  grid:   553421 G-vectors     FFT dimensions: (  90, 108, 128)

     Dynamical RAM for                 wfc:     558.42 MB

     Dynamical RAM for     wfc (w. buffer):     558.42 MB

     Dynamical RAM for           str. fact:      25.33 MB

     Dynamical RAM for           local pot:       0.00 MB

     Dynamical RAM for          nlocal pot:    1810.39 MB

     Dynamical RAM for                qrad:       3.73 MB

     Dynamical RAM for          rho,v,vnew:     107.62 MB

     Dynamical RAM for               rhoin:      35.87 MB

     Dynamical RAM for           G-vectors:      35.89 MB

     Dynamical RAM for          h,s,v(r/c):      51.24 MB

     Dynamical RAM for          <psi|beta>:      13.84 MB

     Dynamical RAM for                 psi:    1116.84 MB

     Dynamical RAM for                hpsi:    1116.84 MB

     Dynamical RAM for      wfcinit/wfcrot:    1123.25 MB

     Estimated static dynamical RAM per process >       2.61 GB

     Estimated max dynamical RAM per process >       4.85 GB
     Generating pointlists ...
     new r_m :   0.1013 (alat units)  1.7015 (a.u.) for type    1
     new r_m :   0.0645 (alat units)  1.0829 (a.u.) for type    2
     new r_m :   0.0645 (alat units)  1.0829 (a.u.) for type    3

     Initial potential from superposition of free atoms

     starting charge     880.9860, renormalised to     881.0000
     Starting wfcs are  567 randomized atomic wfcs

     total cpu time spent up to now is       13.2 secs

     per-process dynamical memory:  1150.2 Mb

     Self-consistent Calculation
[tb_dev] Currently allocated     3.10E+01 Mbytes, locked:    0 /   3
[tb_pin] Currently allocated     0.00E+00 Mbytes, locked:    0 /   0

     iteration #  1     ecut=    60.00 Ry     beta= 0.20
     Davidson diagonalization with overlap

---- Real-time Memory Report at c_bands before calling an iterative solver
          3224 MiB given to the printing process from OS
          1157 MiB allocation reported by mallinfo(arena+hblkhd)
        237051 MiB available memory on the node where the printing process lives
     GPU memory used/free/total (MiB): 5716 / 34725 / 40442
------------------
     ethr =  1.00E-02,  avg # of iterations =  2.0

     total cpu time spent up to now is       35.9 secs

     total energy              =   -9183.20166172 Ry
     estimated scf accuracy    <      16.59939062 Ry

     total magnetization       =     1.46 Bohr mag/cell
     absolute magnetization    =    13.11 Bohr mag/cell
[tb_dev] Currently allocated     0.00E+00 Mbytes, locked:    0 /   0
[tb_pin] Currently allocated     0.00E+00 Mbytes, locked:    0 /   0

     iteration #  2     ecut=    60.00 Ry     beta= 0.20
     Davidson diagonalization with overlap

---- Real-time Memory Report at c_bands before calling an iterative solver
          3259 MiB given to the printing process from OS
          1157 MiB allocation reported by mallinfo(arena+hblkhd)
        235877 MiB available memory on the node where the printing process lives
     GPU memory used/free/total (MiB): 8500 / 31941 / 40442
------------------
     ethr =  1.88E-03,  avg # of iterations =  2.0

     total cpu time spent up to now is       56.7 secs

     total energy              =   -9183.34416771 Ry
     estimated scf accuracy    <       5.85134069 Ry

     total magnetization       =     1.14 Bohr mag/cell
     absolute magnetization    =    12.39 Bohr mag/cell
[tb_dev] Currently allocated     0.00E+00 Mbytes, locked:    0 /   0
[tb_pin] Currently allocated     0.00E+00 Mbytes, locked:    0 /   0

     iteration #  3     ecut=    60.00 Ry     beta= 0.20
     Davidson diagonalization with overlap

---- Real-time Memory Report at c_bands before calling an iterative solver
          3326 MiB given to the printing process from OS
          1246 MiB allocation reported by mallinfo(arena+hblkhd)
        234463 MiB available memory on the node where the printing process lives
     GPU memory used/free/total (MiB): 8506 / 31935 / 40442
------------------
     ethr =  6.64E-04,  avg # of iterations =  2.0

     total cpu time spent up to now is       76.8 secs

     total energy              =   -9183.35492755 Ry
     estimated scf accuracy    <       1.62335891 Ry

     total magnetization       =     1.19 Bohr mag/cell
     absolute magnetization    =    10.19 Bohr mag/cell
[tb_dev] Currently allocated     0.00E+00 Mbytes, locked:    0 /   0
[tb_pin] Currently allocated     0.00E+00 Mbytes, locked:    0 /   0

     iteration #  4     ecut=    60.00 Ry     beta= 0.20
     Davidson diagonalization with overlap

---- Real-time Memory Report at c_bands before calling an iterative solver
          3360 MiB given to the printing process from OS
          1246 MiB allocation reported by mallinfo(arena+hblkhd)
        235286 MiB available memory on the node where the printing process lives
     GPU memory used/free/total (MiB): 8506 / 31935 / 40442
------------------
     ethr =  1.84E-04,  avg # of iterations =  3.6
     Minimization algorithm failed to find Fermi energy: reverting to bisection
     Possible cause: smearing is larger than the electronic band-gap.

     total cpu time spent up to now is       98.1 secs

     total energy              =   -9183.48992035 Ry
     estimated scf accuracy    <       0.17842344 Ry

     total magnetization       =     1.62 Bohr mag/cell
     absolute magnetization    =     6.01 Bohr mag/cell
[tb_dev] Currently allocated     0.00E+00 Mbytes, locked:    0 /   0
[tb_pin] Currently allocated     0.00E+00 Mbytes, locked:    0 /   0

     iteration #  5     ecut=    60.00 Ry     beta= 0.20
     Davidson diagonalization with overlap

---- Real-time Memory Report at c_bands before calling an iterative solver
          3394 MiB given to the printing process from OS
          1246 MiB allocation reported by mallinfo(arena+hblkhd)
        235132 MiB available memory on the node where the printing process lives
     GPU memory used/free/total (MiB): 8506 / 31935 / 40442
------------------
     ethr =  2.03E-05,  avg # of iterations =  8.5
     Minimization algorithm failed to find Fermi energy: reverting to bisection
     Possible cause: smearing is larger than the electronic band-gap.

     total cpu time spent up to now is      125.7 secs

     total energy              =   -9183.51615519 Ry
     estimated scf accuracy    <       0.05700599 Ry

     total magnetization       =     1.40 Bohr mag/cell
     absolute magnetization    =     4.64 Bohr mag/cell
[tb_dev] Currently allocated     0.00E+00 Mbytes, locked:    0 /   0
[tb_pin] Currently allocated     0.00E+00 Mbytes, locked:    0 /   0

     iteration #  6     ecut=    60.00 Ry     beta= 0.20
     Davidson diagonalization with overlap

---- Real-time Memory Report at c_bands before calling an iterative solver
          3429 MiB given to the printing process from OS
          1246 MiB allocation reported by mallinfo(arena+hblkhd)
        235450 MiB available memory on the node where the printing process lives
     GPU memory used/free/total (MiB): 8508 / 31933 / 40442
------------------
     ethr =  6.47E-06,  avg # of iterations =  2.5
     Minimization algorithm failed to find Fermi energy: reverting to bisection
     Possible cause: smearing is larger than the electronic band-gap.

     total cpu time spent up to now is      145.8 secs

     total energy              =   -9183.52193662 Ry
     estimated scf accuracy    <       0.02260660 Ry

     total magnetization       =     1.28 Bohr mag/cell
     absolute magnetization    =     3.82 Bohr mag/cell
[tb_dev] Currently allocated     0.00E+00 Mbytes, locked:    0 /   0
[tb_pin] Currently allocated     0.00E+00 Mbytes, locked:    0 /   0

     iteration #  7     ecut=    60.00 Ry     beta= 0.20
     Davidson diagonalization with overlap

---- Real-time Memory Report at c_bands before calling an iterative solver
          3463 MiB given to the printing process from OS
          1246 MiB allocation reported by mallinfo(arena+hblkhd)
        235066 MiB available memory on the node where the printing process lives
     GPU memory used/free/total (MiB): 8508 / 31933 / 40442
------------------
     ethr =  2.57E-06,  avg # of iterations =  2.9

     total cpu time spent up to now is      165.9 secs

     total energy              =   -9183.52288121 Ry
     estimated scf accuracy    <       0.00882160 Ry

     total magnetization       =     1.18 Bohr mag/cell
     absolute magnetization    =     3.07 Bohr mag/cell
[tb_dev] Currently allocated     0.00E+00 Mbytes, locked:    0 /   0
[tb_pin] Currently allocated     0.00E+00 Mbytes, locked:    0 /   0

     iteration #  8     ecut=    60.00 Ry     beta= 0.20
     Davidson diagonalization with overlap

---- Real-time Memory Report at c_bands before calling an iterative solver
          3497 MiB given to the printing process from OS
          1246 MiB allocation reported by mallinfo(arena+hblkhd)
        234390 MiB available memory on the node where the printing process lives
     GPU memory used/free/total (MiB): 8508 / 31933 / 40442
------------------
     ethr =  1.00E-06,  avg # of iterations =  2.9

     total cpu time spent up to now is      187.2 secs

     total energy              =   -9183.52455924 Ry
     estimated scf accuracy    <       0.00087083 Ry

     total magnetization       =     1.12 Bohr mag/cell
     absolute magnetization    =     2.15 Bohr mag/cell
[tb_dev] Currently allocated     0.00E+00 Mbytes, locked:    0 /   0
[tb_pin] Currently allocated     0.00E+00 Mbytes, locked:    0 /   0

     iteration #  9     ecut=    60.00 Ry     beta= 0.20
     Davidson diagonalization with overlap

---- Real-time Memory Report at c_bands before calling an iterative solver
          3531 MiB given to the printing process from OS
          1246 MiB allocation reported by mallinfo(arena+hblkhd)
        233484 MiB available memory on the node where the printing process lives
     GPU memory used/free/total (MiB): 8516 / 31925 / 40442
------------------
     ethr =  9.88E-08,  avg # of iterations =  4.7

     total cpu time spent up to now is      211.3 secs

     total energy              =   -9183.52485581 Ry
     estimated scf accuracy    <       0.00071212 Ry

     total magnetization       =     1.07 Bohr mag/cell
     absolute magnetization    =     1.84 Bohr mag/cell
[tb_dev] Currently allocated     0.00E+00 Mbytes, locked:    0 /   0
[tb_pin] Currently allocated     0.00E+00 Mbytes, locked:    0 /   0

     iteration # 10     ecut=    60.00 Ry     beta= 0.20
     Davidson diagonalization with overlap

---- Real-time Memory Report at c_bands before calling an iterative solver
          3565 MiB given to the printing process from OS
          1246 MiB allocation reported by mallinfo(arena+hblkhd)
        233203 MiB available memory on the node where the printing process lives
     GPU memory used/free/total (MiB): 8528 / 31913 / 40442
------------------
     ethr =  8.08E-08,  avg # of iterations =  1.6

     total cpu time spent up to now is      231.2 secs

     total energy              =   -9183.52497622 Ry
     estimated scf accuracy    <       0.00033727 Ry

     total magnetization       =     1.00 Bohr mag/cell
     absolute magnetization    =     1.69 Bohr mag/cell
[tb_dev] Currently allocated     0.00E+00 Mbytes, locked:    0 /   0
[tb_pin] Currently allocated     0.00E+00 Mbytes, locked:    0 /   0

     iteration # 11     ecut=    60.00 Ry     beta= 0.20
     Davidson diagonalization with overlap

---- Real-time Memory Report at c_bands before calling an iterative solver
          3598 MiB given to the printing process from OS
          1246 MiB allocation reported by mallinfo(arena+hblkhd)
        233267 MiB available memory on the node where the printing process lives
     GPU memory used/free/total (MiB): 8528 / 31913 / 40442
------------------
     ethr =  3.83E-08,  avg # of iterations =  3.8

     total cpu time spent up to now is      252.7 secs

     total energy              =   -9183.52513476 Ry
     estimated scf accuracy    <       0.00010956 Ry

     total magnetization       =     0.87 Bohr mag/cell
     absolute magnetization    =     1.36 Bohr mag/cell
[tb_dev] Currently allocated     0.00E+00 Mbytes, locked:    0 /   0
[tb_pin] Currently allocated     0.00E+00 Mbytes, locked:    0 /   0

     iteration # 12     ecut=    60.00 Ry     beta= 0.20
     Davidson diagonalization with overlap

---- Real-time Memory Report at c_bands before calling an iterative solver
          3632 MiB given to the printing process from OS
          1246 MiB allocation reported by mallinfo(arena+hblkhd)
        247516 MiB available memory on the node where the printing process lives
     GPU memory used/free/total (MiB): 8528 / 31913 / 40442
------------------
     ethr =  1.24E-08,  avg # of iterations =  2.4

     total cpu time spent up to now is      273.5 secs

     total energy              =   -9183.52517287 Ry
     estimated scf accuracy    <       0.00006648 Ry

     total magnetization       =     0.81 Bohr mag/cell
     absolute magnetization    =     1.27 Bohr mag/cell
[tb_dev] Currently allocated     0.00E+00 Mbytes, locked:    0 /   0
[tb_pin] Currently allocated     0.00E+00 Mbytes, locked:    0 /   0

     iteration # 13     ecut=    60.00 Ry     beta= 0.20
     Davidson diagonalization with overlap

---- Real-time Memory Report at c_bands before calling an iterative solver
          3666 MiB given to the printing process from OS
          1246 MiB allocation reported by mallinfo(arena+hblkhd)
        255428 MiB available memory on the node where the printing process lives
     GPU memory used/free/total (MiB): 8528 / 31913 / 40442
------------------
     ethr =  7.55E-09,  avg # of iterations =  4.2

     total cpu time spent up to now is      295.8 secs

     total energy              =   -9183.52521013 Ry
     estimated scf accuracy    <       0.00002978 Ry

     total magnetization       =     0.74 Bohr mag/cell
     absolute magnetization    =     1.15 Bohr mag/cell
[tb_dev] Currently allocated     0.00E+00 Mbytes, locked:    0 /   0
[tb_pin] Currently allocated     0.00E+00 Mbytes, locked:    0 /   0

     iteration # 14     ecut=    60.00 Ry     beta= 0.20
     Davidson diagonalization with overlap

---- Real-time Memory Report at c_bands before calling an iterative solver
          3700 MiB given to the printing process from OS
          1246 MiB allocation reported by mallinfo(arena+hblkhd)
        251978 MiB available memory on the node where the printing process lives
     GPU memory used/free/total (MiB): 8528 / 31913 / 40442
------------------
     ethr =  3.38E-09,  avg # of iterations =  4.6

     total cpu time spent up to now is      320.2 secs

     total energy              =   -9183.52524590 Ry
     estimated scf accuracy    <       0.00001846 Ry

     total magnetization       =     0.66 Bohr mag/cell
     absolute magnetization    =     1.05 Bohr mag/cell
[tb_dev] Currently allocated     0.00E+00 Mbytes, locked:    0 /   0
[tb_pin] Currently allocated     0.00E+00 Mbytes, locked:    0 /   0

     iteration # 15     ecut=    60.00 Ry     beta= 0.20
     Davidson diagonalization with overlap

---- Real-time Memory Report at c_bands before calling an iterative solver
          3700 MiB given to the printing process from OS
          1246 MiB allocation reported by mallinfo(arena+hblkhd)
        261988 MiB available memory on the node where the printing process lives
     GPU memory used/free/total (MiB): 8528 / 31913 / 40442
------------------
     ethr =  2.09E-09,  avg # of iterations =  2.3

     total cpu time spent up to now is      341.6 secs

     total energy              =   -9183.52525266 Ry
     estimated scf accuracy    <       0.00001093 Ry

     total magnetization       =     0.62 Bohr mag/cell
     absolute magnetization    =     1.00 Bohr mag/cell
[tb_dev] Currently allocated     0.00E+00 Mbytes, locked:    0 /   0
[tb_pin] Currently allocated     0.00E+00 Mbytes, locked:    0 /   0

     iteration # 16     ecut=    60.00 Ry     beta= 0.20
     Davidson diagonalization with overlap

---- Real-time Memory Report at c_bands before calling an iterative solver
          3700 MiB given to the printing process from OS
          1246 MiB allocation reported by mallinfo(arena+hblkhd)
        265722 MiB available memory on the node where the printing process lives
     GPU memory used/free/total (MiB): 8528 / 31913 / 40442
------------------
     ethr =  1.24E-09,  avg # of iterations =  5.3

     total cpu time spent up to now is      367.4 secs

     total energy              =   -9183.52527271 Ry
     estimated scf accuracy    <       0.00000434 Ry

     total magnetization       =     0.56 Bohr mag/cell
     absolute magnetization    =     0.93 Bohr mag/cell
[tb_dev] Currently allocated     0.00E+00 Mbytes, locked:    0 /   0
[tb_pin] Currently allocated     0.00E+00 Mbytes, locked:    0 /   0

     iteration # 17     ecut=    60.00 Ry     beta= 0.20
     Davidson diagonalization with overlap

---- Real-time Memory Report at c_bands before calling an iterative solver
          3700 MiB given to the printing process from OS
          1246 MiB allocation reported by mallinfo(arena+hblkhd)
        279401 MiB available memory on the node where the printing process lives
     GPU memory used/free/total (MiB): 8528 / 31913 / 40442
------------------
     ethr =  4.93E-10,  avg # of iterations =  3.2

     total cpu time spent up to now is      389.8 secs

     total energy              =   -9183.52527710 Ry
     estimated scf accuracy    <       0.00000277 Ry

     total magnetization       =     0.53 Bohr mag/cell
     absolute magnetization    =     0.90 Bohr mag/cell
[tb_dev] Currently allocated     0.00E+00 Mbytes, locked:    0 /   0
[tb_pin] Currently allocated     0.00E+00 Mbytes, locked:    0 /   0

     iteration # 18     ecut=    60.00 Ry     beta= 0.20
     Davidson diagonalization with overlap

---- Real-time Memory Report at c_bands before calling an iterative solver
          3700 MiB given to the printing process from OS
          1246 MiB allocation reported by mallinfo(arena+hblkhd)
        277196 MiB available memory on the node where the printing process lives
     GPU memory used/free/total (MiB): 8534 / 31907 / 40442
------------------
     ethr =  3.14E-10,  avg # of iterations =  4.6

     total cpu time spent up to now is      412.4 secs

     total energy              =   -9183.52527705 Ry
     estimated scf accuracy    <       0.00000180 Ry

     total magnetization       =     0.52 Bohr mag/cell
     absolute magnetization    =     0.89 Bohr mag/cell
[tb_dev] Currently allocated     0.00E+00 Mbytes, locked:    0 /   0
[tb_pin] Currently allocated     0.00E+00 Mbytes, locked:    0 /   0

     iteration # 19     ecut=    60.00 Ry     beta= 0.20
     Davidson diagonalization with overlap

---- Real-time Memory Report at c_bands before calling an iterative solver
          3700 MiB given to the printing process from OS
          1246 MiB allocation reported by mallinfo(arena+hblkhd)
        277475 MiB available memory on the node where the printing process lives
     GPU memory used/free/total (MiB): 8534 / 31907 / 40442
------------------
     ethr =  2.04E-10,  avg # of iterations =  5.3

     total cpu time spent up to now is      438.8 secs

     total energy              =   -9183.52528269 Ry
     estimated scf accuracy    <       0.00000080 Ry

     total magnetization       =     0.49 Bohr mag/cell
     absolute magnetization    =     0.85 Bohr mag/cell
[tb_dev] Currently allocated     0.00E+00 Mbytes, locked:    0 /   0
[tb_pin] Currently allocated     0.00E+00 Mbytes, locked:    0 /   0

     iteration # 20     ecut=    60.00 Ry     beta= 0.20
     Davidson diagonalization with overlap

---- Real-time Memory Report at c_bands before calling an iterative solver
          3700 MiB given to the printing process from OS
          1246 MiB allocation reported by mallinfo(arena+hblkhd)
        277523 MiB available memory on the node where the printing process lives
     GPU memory used/free/total (MiB): 8534 / 31907 / 40442
------------------
     ethr =  9.06E-11,  avg # of iterations =  4.3

     total cpu time spent up to now is      461.9 secs

     total energy              =   -9183.52528370 Ry
     estimated scf accuracy    <       0.00000059 Ry

     total magnetization       =     0.47 Bohr mag/cell
     absolute magnetization    =     0.84 Bohr mag/cell
[tb_dev] Currently allocated     0.00E+00 Mbytes, locked:    0 /   0
[tb_pin] Currently allocated     0.00E+00 Mbytes, locked:    0 /   0

     iteration # 21     ecut=    60.00 Ry     beta= 0.20
     Davidson diagonalization with overlap

---- Real-time Memory Report at c_bands before calling an iterative solver
          3700 MiB given to the printing process from OS
          1246 MiB allocation reported by mallinfo(arena+hblkhd)
        281826 MiB available memory on the node where the printing process lives
     GPU memory used/free/total (MiB): 8534 / 31907 / 40442
------------------
     ethr =  6.71E-11,  avg # of iterations =  5.1
     Minimization algorithm failed to find Fermi energy: reverting to bisection
     Possible cause: smearing is larger than the electronic band-gap.

     total cpu time spent up to now is      485.9 secs

     total energy              =   -9183.52528456 Ry
     estimated scf accuracy    <       0.00000031 Ry

     total magnetization       =     0.47 Bohr mag/cell
     absolute magnetization    =     0.82 Bohr mag/cell
[tb_dev] Currently allocated     0.00E+00 Mbytes, locked:    0 /   0
[tb_pin] Currently allocated     0.00E+00 Mbytes, locked:    0 /   0

     iteration # 22     ecut=    60.00 Ry     beta= 0.20
     Davidson diagonalization with overlap

---- Real-time Memory Report at c_bands before calling an iterative solver
          3700 MiB given to the printing process from OS
          1246 MiB allocation reported by mallinfo(arena+hblkhd)
        281107 MiB available memory on the node where the printing process lives
     GPU memory used/free/total (MiB): 8534 / 31907 / 40442
------------------
     ethr =  3.53E-11,  avg # of iterations =  4.9
     Minimization algorithm failed to find Fermi energy: reverting to bisection
     Possible cause: smearing is larger than the electronic band-gap.

     total cpu time spent up to now is      510.2 secs

     total energy              =   -9183.52528525 Ry
     estimated scf accuracy    <       0.00000023 Ry

     total magnetization       =     0.46 Bohr mag/cell
     absolute magnetization    =     0.81 Bohr mag/cell
[tb_dev] Currently allocated     0.00E+00 Mbytes, locked:    0 /   0
[tb_pin] Currently allocated     0.00E+00 Mbytes, locked:    0 /   0

     iteration # 23     ecut=    60.00 Ry     beta= 0.20
     Davidson diagonalization with overlap

---- Real-time Memory Report at c_bands before calling an iterative solver
          3700 MiB given to the printing process from OS
          1246 MiB allocation reported by mallinfo(arena+hblkhd)
        277932 MiB available memory on the node where the printing process lives
     GPU memory used/free/total (MiB): 8534 / 31907 / 40442
------------------
     ethr =  2.59E-11,  avg # of iterations =  3.5
     Minimization algorithm failed to find Fermi energy: reverting to bisection
     Possible cause: smearing is larger than the electronic band-gap.

     total cpu time spent up to now is      531.8 secs

     total energy              =   -9183.52528521 Ry
     estimated scf accuracy    <       0.00000016 Ry

     total magnetization       =     0.46 Bohr mag/cell
     absolute magnetization    =     0.80 Bohr mag/cell
[tb_dev] Currently allocated     0.00E+00 Mbytes, locked:    0 /   0
[tb_pin] Currently allocated     0.00E+00 Mbytes, locked:    0 /   0

     iteration # 24     ecut=    60.00 Ry     beta= 0.20
     Davidson diagonalization with overlap

---- Real-time Memory Report at c_bands before calling an iterative solver
          3700 MiB given to the printing process from OS
          1246 MiB allocation reported by mallinfo(arena+hblkhd)
        276980 MiB available memory on the node where the printing process lives
     GPU memory used/free/total (MiB): 8534 / 31907 / 40442
------------------
     ethr =  1.83E-11,  avg # of iterations =  5.4
     Minimization algorithm failed to find Fermi energy: reverting to bisection
     Possible cause: smearing is larger than the electronic band-gap.
 
     Magnetic moment per site  (integrated on atomic sphere of radius R)
     atom   1 (R=0.101)  charge= 13.8551  magn= -0.0013
     atom   2 (R=0.101)  charge= 13.8532  magn= -0.0039
     atom   3 (R=0.064)  charge=  0.9913  magn= -0.0000
     atom   4 (R=0.064)  charge=  0.9929  magn=  0.0001
     atom   5 (R=0.064)  charge=  0.9924  magn=  0.0002
     atom   6 (R=0.064)  charge=  0.9925  magn= -0.0000
     atom   7 (R=0.101)  charge= 13.8564  magn=  0.0007
     atom   8 (R=0.101)  charge= 13.8476  magn=  0.0024
     atom   9 (R=0.064)  charge=  0.9929  magn= -0.0001
     atom  10 (R=0.064)  charge=  0.9921  magn= -0.0002
     atom  11 (R=0.064)  charge=  0.9930  magn= -0.0002
     atom  12 (R=0.064)  charge=  0.9923  magn= -0.0000
     atom  13 (R=0.101)  charge= 13.8573  magn=  0.0038
     atom  14 (R=0.101)  charge= 13.8517  magn= -0.0074
     atom  15 (R=0.064)  charge=  0.9922  magn= -0.0002
     atom  16 (R=0.064)  charge=  0.9951  magn=  0.0011
     atom  17 (R=0.064)  charge=  0.9923  magn= -0.0005
     atom  18 (R=0.064)  charge=  0.9927  magn= -0.0000
     atom  19 (R=0.101)  charge= 13.8574  magn=  0.0040
     atom  20 (R=0.101)  charge= 13.8535  magn= -0.0037
     atom  21 (R=0.064)  charge=  0.9932  magn= -0.0002
     atom  22 (R=0.064)  charge=  0.9928  magn= -0.0010
     atom  23 (R=0.064)  charge=  0.9929  magn=  0.0000
     atom  24 (R=0.064)  charge=  0.9925  magn= -0.0000
     atom  25 (R=0.101)  charge= 13.8512  magn=  0.0048
     atom  26 (R=0.101)  charge= 13.8554  magn=  0.0026
     atom  27 (R=0.064)  charge=  0.9921  magn= -0.0000
     atom  28 (R=0.064)  charge=  0.9929  magn=  0.0001
     atom  29 (R=0.064)  charge=  0.9930  magn=  0.0001
     atom  30 (R=0.064)  charge=  0.9921  magn= -0.0000
     atom  31 (R=0.101)  charge= 13.8581  magn=  0.0042
     atom  32 (R=0.101)  charge= 13.8571  magn= -0.0012
     atom  33 (R=0.064)  charge=  0.9933  magn=  0.0000
     atom  34 (R=0.064)  charge=  0.9931  magn= -0.0000
     atom  35 (R=0.064)  charge=  0.9925  magn=  0.0002
     atom  36 (R=0.064)  charge=  0.9999  magn= -0.0000
     atom  37 (R=0.101)  charge= 13.8508  magn=  0.0014
     atom  38 (R=0.101)  charge= 13.8554  magn=  0.0160
     atom  39 (R=0.064)  charge=  0.9925  magn=  0.0000
     atom  40 (R=0.064)  charge=  0.9897  magn=  0.0001
     atom  41 (R=0.064)  charge=  0.9932  magn=  0.0001
     atom  42 (R=0.064)  charge=  0.9960  magn=  0.0046
     atom  43 (R=0.101)  charge= 13.8582  magn=  0.0220
     atom  44 (R=0.101)  charge= 13.8560  magn= -0.0045
     atom  45 (R=0.064)  charge=  0.9929  magn=  0.0001
     atom  46 (R=0.064)  charge=  0.9927  magn= -0.0005
     atom  47 (R=0.064)  charge=  0.9926  magn=  0.0001
     atom  48 (R=0.064)  charge=  0.9918  magn= -0.0006
     atom  49 (R=0.101)  charge= 13.8547  magn=  0.0028
     atom  50 (R=0.101)  charge= 13.8570  magn=  0.0025
     atom  51 (R=0.064)  charge=  0.9921  magn=  0.0001
     atom  52 (R=0.064)  charge=  0.9929  magn=  0.0000
     atom  53 (R=0.064)  charge=  0.9924  magn= -0.0000
     atom  54 (R=0.064)  charge=  0.9924  magn=  0.0000
     atom  55 (R=0.101)  charge= 13.8561  magn= -0.0017
     atom  56 (R=0.101)  charge= 13.8532  magn=  0.0199
     atom  57 (R=0.064)  charge=  0.9914  magn= -0.0001
     atom  58 (R=0.064)  charge=  0.9931  magn=  0.0000
     atom  59 (R=0.064)  charge=  0.9954  magn=  0.0031
     atom  60 (R=0.064)  charge=  0.9928  magn=  0.0001
     atom  61 (R=0.101)  charge= 13.8537  magn=  0.0045
     atom  62 (R=0.101)  charge= 13.8535  magn=  0.0500
     atom  63 (R=0.064)  charge=  0.9908  magn=  0.0001
     atom  64 (R=0.064)  charge=  0.9926  magn= -0.0001
     atom  65 (R=0.064)  charge=  0.9961  magn=  0.0095
     atom  66 (R=0.064)  charge=  0.9928  magn=  0.0001
     atom  67 (R=0.101)  charge= 13.8566  magn= -0.0048
     atom  68 (R=0.101)  charge= 13.8558  magn= -0.0051
     atom  69 (R=0.064)  charge=  0.9920  magn= -0.0006
     atom  70 (R=0.064)  charge=  0.9922  magn=  0.0001
     atom  71 (R=0.064)  charge=  0.9921  magn= -0.0005
     atom  72 (R=0.064)  charge=  0.9923  magn=  0.0001
     atom  73 (R=0.101)  charge= 13.8516  magn= -0.0202
     atom  74 (R=0.101)  charge= 13.8544  magn= -0.0051
     atom  75 (R=0.064)  charge=  0.9923  magn=  0.0000
     atom  76 (R=0.064)  charge=  0.9925  magn= -0.0000
     atom  77 (R=0.064)  charge=  0.9929  magn= -0.0000
     atom  78 (R=0.064)  charge=  0.9925  magn= -0.0000
     atom  79 (R=0.101)  charge= 13.8481  magn=  0.0395
     atom  80 (R=0.101)  charge= 13.8491  magn=  0.0001
     atom  81 (R=0.064)  charge=  0.9928  magn= -0.0002
     atom  82 (R=0.064)  charge=  0.9936  magn= -0.0001
     atom  83 (R=0.064)  charge=  0.9932  magn= -0.0000
     atom  84 (R=0.064)  charge=  0.9920  magn=  0.0001
     atom  85 (R=0.101)  charge= 13.8509  magn= -0.0137
     atom  86 (R=0.064)  charge=  0.9952  magn=  0.0009
     atom  87 (R=0.064)  charge=  0.9927  magn= -0.0000
     atom  88 (R=0.064)  charge=  0.9931  magn= -0.0001
     atom  89 (R=0.064)  charge=  0.9919  magn= -0.0003
     atom  90 (R=0.101)  charge= 13.8292  magn=  0.2626
     atom  91 (R=0.101)  charge= 13.8533  magn= -0.0046
     atom  92 (R=0.064)  charge=  0.9931  magn= -0.0009
     atom  93 (R=0.064)  charge=  0.9932  magn= -0.0001
     atom  94 (R=0.064)  charge=  0.9929  magn= -0.0000
     atom  95 (R=0.064)  charge=  0.9927  magn= -0.0002
     atom  96 (R=0.064)  charge=  0.6546  magn=  0.0002

     total cpu time spent up to now is      557.5 secs

     End of self-consistent calculation

 ------ SPIN UP ------------


          k = 0.0000 0.0000 0.0000 ( 69157 PWs)   bands (ev):

   -75.2794 -75.0420 -74.9268 -74.9116 -74.9092 -74.8909 -74.8848 -74.8811
   -74.8783 -74.8754 -74.8637 -74.8633 -74.8626 -74.8618 -74.8609 -74.8605
   -74.8599 -74.8595 -74.8553 -74.8549 -74.8541 -74.8539 -74.8534 -74.8509
   -74.8497 -74.8480 -74.8472 -74.8468 -74.8440 -74.8381 -74.8316 -41.3321
   -41.2868 -41.1208 -41.0588 -41.0219 -41.0215 -41.0182 -40.9683 -40.9643
   -40.9451 -40.9444 -40.9412 -40.9391 -40.9344 -40.9332 -40.9330 -40.9316
   -40.9314 -40.9309 -40.9306 -40.9304 -40.9302 -40.9284 -40.9278 -40.9275
   -40.9272 -40.9267 -40.9260 -40.9255 -40.9238 -40.9201 -40.9158 -40.9135
   -40.9114 -40.8936 -40.8478 -40.8466 -40.8360 -40.8313 -40.8174 -40.8149
   -40.8130 -40.8117 -40.8097 -40.8029 -40.8002 -40.7993 -40.7982 -40.7977
   -40.7970 -40.7967 -40.7960 -40.7926 -40.7916 -40.7911 -40.7902 -40.7900
   -40.7893 -40.7885 -40.7881 -40.7877 -40.7867 -40.7866 -40.7844 -40.7838
   -40.7818 -40.7806 -40.7786 -40.7783 -40.7742 -40.7723 -40.7627 -40.7619
   -40.7609 -40.7608 -40.7598 -40.7567 -40.7557 -40.7550 -40.7539 -40.7523
   -40.7482 -40.7454 -40.7454 -40.7438 -40.7434 -40.7430 -40.7419 -40.7375
   -40.7366 -40.7360 -40.7316 -40.7219  -4.3776  -3.8935  -3.8139  -3.5061
    -3.4553  -3.1769  -3.0584  -3.0312  -3.0128  -2.9826  -2.9109  -2.7517
    -2.6547  -2.6399  -2.6336  -2.6145  -2.5618  -2.5459  -2.5387  -2.4805
    -2.4756  -2.3723  -2.3536  -2.3269  -2.2986  -2.2397  -2.2192  -2.0917
    -2.0860  -2.0079  -1.9826  -1.9381  -1.3754  -1.3394  -1.0000  -0.9461
    -0.8940  -0.8445  -0.6715  -0.6234  -0.5221  -0.4587  -0.4439  -0.4261
    -0.3497  -0.3433  -0.2750  -0.2179  -0.1482  -0.0272   0.0842   0.0876
     0.0923   0.2669   0.2971   0.3041   0.3366   0.3931   0.4263   0.4459
     0.4820   0.5233   0.5661   0.6625   4.5720   4.7035   4.7214   4.8018
     5.1213   5.1585   5.1626   5.1735   5.2067   5.2396   5.2552   5.2677
     5.2720   5.2872   5.2984   5.3219   5.4063   5.4663   5.5512   5.6549
     5.6784   5.6975   5.7373   5.7639   5.8497   5.8912   5.8937   5.9157
     5.9227   5.9424   5.9512   5.9661   5.9786   6.0083   6.0250   6.0654
     6.0975   6.2000   6.2368   6.2984   6.5057   6.5667   6.5983   6.6116
     6.7116   6.7285   6.7868   6.8127   6.8226   6.8339   6.8364   6.8650
     6.9551   6.9783   7.0156   7.0582   7.1505   7.1526   7.1594   7.1855
     7.2060   7.2152   7.2370   7.2544   7.2852   7.3414   7.3766   7.4293
     7.6415   7.7748   7.7950   7.8106   7.8320   7.8336   7.8397   7.8551
     7.8577   7.8692   7.8722   7.8776   7.8849   7.8924   7.8993   7.9026
     7.9182   7.9539   7.9996   8.0640   8.1451   8.1999   8.2105   8.2355
     8.2857   8.3006   8.3047   8.3524   8.3662   8.3857   8.4428   8.4660
     8.4885   8.4987   8.5147   8.5344   8.5380   8.5536   8.5877   8.6106
     8.6311   8.6405   8.6660   8.6824   8.6949   8.6996   8.7368   8.7536
     8.7680   8.8015   8.8105   8.8242   8.8368   8.8860   8.9142   8.9391
     8.9491   8.9907   9.0240   9.1248   9.2203   9.3291   9.3725   9.3866
     9.4219   9.4569   9.4774   9.4965   9.4976   9.5415   9.5789   9.5872
     9.5976   9.6116   9.6175   9.6207   9.6512   9.7233   9.7521   9.8521
     9.9632   9.9729  10.1674  10.1940  10.2128  10.2328  10.3573  10.3740
    10.4079  10.4327  10.4546  10.6356  10.6668  10.6991  10.7067  10.7363
    10.7572  10.7777  10.8209  10.8333  10.8534  10.8599  10.8677  10.8772
    10.8829  10.8902  10.8975  10.9121  10.9488  10.9568  10.9726  11.0090
    11.0224  11.0486  11.1035  11.1417  11.1654  11.1821  11.1972  11.2038
    11.2053  11.2470  11.2651  11.2720  11.2768  11.2840  11.2907  11.2986
    11.3006  11.3098  11.3275  11.3465  11.3613  11.3708  11.3822  11.3855
    11.3899  11.4032  11.4052  11.4119  11.4312  11.4698  11.4807  11.4955
    11.5071  11.5174  11.5312  11.5874  11.6129  11.6270  11.6458  11.6852
    11.6875  11.6951  11.7177  11.7247  11.7364  11.7515  11.7548  11.7998
    11.8035  11.8786  11.9051  11.9126  11.9276  11.9463  11.9554  11.9621
    11.9742  11.9834  12.0032  12.0444  12.0666  12.0932  12.1076  12.1163
    12.1459  12.1877  12.1990  12.2592  12.2747  12.2791  12.3332  12.3394
    12.3980  13.1293  13.1437  13.3072  13.3416  13.3479  13.3576  13.3651
    13.4130  13.4387  13.6157  13.6196  13.6445  13.6574  13.6667  13.6979
    13.7149  13.7348  13.7757  13.7879  13.8083  13.8213  13.8363  13.8422
    13.8655  13.8730  13.8984  13.9222  13.9322  13.9355  13.9515  13.9608
    13.9742  14.0084  14.0514  14.0797  14.1164  14.1316  14.1403  14.1644
    14.1673  14.1745  14.1841  14.2048  14.2348  14.2405  14.2804  14.3056
    14.3302  14.3402  14.3557  14.3649  14.4009  14.4214  14.4334  14.4772
    14.5194  14.5455  14.5534  14.6476  14.6707  14.7238  14.7318  14.7582
    14.7740  14.7863  14.7891  14.8044  14.8234  14.8487  14.8818  14.8861
    14.9208  14.9425  14.9515  14.9807  15.0014  15.0565  15.0677  15.1569
    15.1705  15.2417  15.2620  15.2693  15.3671  15.3993  15.4262  15.4939
    15.4940

     occupation numbers 
     1.0000   1.0000   1.0000   1.0000   1.0000   1.0000   1.0000   1.0000
     1.0000   1.0000   1.0000   1.0000   1.0000   1.0000   1.0000   1.0000
     1.0000   1.0000   1.0000   1.0000   1.0000   1.0000   1.0000   1.0000
     1.0000   1.0000   1.0000   1.0000   1.0000   1.0000   1.0000   1.0000
     1.0000   1.0000   1.0000   1.0000   1.0000   1.0000   1.0000   1.0000
     1.0000   1.0000   1.0000   1.0000   1.0000   1.0000   1.0000   1.0000
     1.0000   1.0000   1.0000   1.0000   1.0000   1.0000   1.0000   1.0000
     1.0000   1.0000   1.0000   1.0000   1.0000   1.0000   1.0000   1.0000
     1.0000   1.0000   1.0000   1.0000   1.0000   1.0000   1.0000   1.0000
     1.0000   1.0000   1.0000   1.0000   1.0000   1.0000   1.0000   1.0000
     1.0000   1.0000   1.0000   1.0000   1.0000   1.0000   1.0000   1.0000
     1.0000   1.0000   1.0000   1.0000   1.0000   1.0000   1.0000   1.0000
     1.0000   1.0000   1.0000   1.0000   1.0000   1.0000   1.0000   1.0000
     1.0000   1.0000   1.0000   1.0000   1.0000   1.0000   1.0000   1.0000
     1.0000   1.0000   1.0000   1.0000   1.0000   1.0000   1.0000   1.0000
     1.0000   1.0000   1.0000   1.0000   1.0000   1.0000   1.0000   1.0000
     1.0000   1.0000   1.0000   1.0000   1.0000   1.0000   1.0000   1.0000
     1.0000   1.0000   1.0000   1.0000   1.0000   1.0000   1.0000   1.0000
     1.0000   1.0000   1.0000   1.0000   1.0000   1.0000   1.0000   1.0000
     1.0000   1.0000   1.0000   1.0000   1.0000   1.0000   1.0000   1.0000
     1.0000   1.0000   1.0000   1.0000   1.0000   1.0000   1.0000   1.0000
     1.0000   1.0000   1.0000   1.0000   1.0000   1.0000   1.0000   1.0000
     1.0000   1.0000   1.0000   1.0000   1.0000   1.0000   1.0000   1.0000
     1.0000   1.0000   1.0000   1.0000   1.0000   1.0000   1.0000   1.0000
     1.0000   1.0000   1.0000   1.0000   1.0000   1.0000   1.0000   1.0000
     1.0000   1.0000   1.0000   1.0000   1.0000   1.0000   1.0000   1.0000
     1.0000   1.0000   1.0000   1.0000   1.0000   1.0000   1.0000   1.0000
     1.0000   1.0000   1.0000   1.0000   1.0000   1.0000   1.0000   1.0000
     1.0000   1.0000   1.0000   1.0000   1.0000   1.0000   1.0000   1.0000
     1.0000   1.0000   1.0000   1.0000   1.0000   1.0000   1.0000   1.0000
     1.0000   1.0000   1.0000   1.0000   1.0000   1.0000   1.0000   1.0000
     1.0000   1.0000   1.0000   1.0000   1.0000   1.0000   1.0000   1.0000
     1.0000   1.0000   1.0000   1.0000   1.0000   1.0000   1.0000   1.0000
     1.0000   1.0000   1.0000   1.0000   1.0000   1.0000   1.0000   1.0000
     1.0000   1.0000   1.0000   1.0000   1.0000   1.0000   1.0000   1.0000
     1.0000   1.0000   1.0000   1.0000   1.0000   1.0000   1.0000   1.0000
     1.0000   1.0000   1.0000   1.0000   1.0000   1.0000   1.0000   1.0000
     1.0000   1.0000   1.0000   1.0000   1.0000   1.0000   1.0000   1.0000
     1.0000   1.0000   1.0000   1.0000   1.0000   1.0000   1.0000   1.0000
     1.0000   1.0000   1.0000   1.0000   1.0000   1.0000   1.0000   1.0000
     1.0000   1.0000   1.0000   1.0000   1.0000   1.0000   1.0000   1.0000
     1.0000   1.0000   1.0000   1.0000   1.0000   1.0000   1.0000   1.0000
     1.0000   1.0000   1.0000   1.0000   1.0000   1.0000   1.0000   1.0000
     1.0000   1.0000   1.0000   1.0000   1.0000   1.0000   1.0000   1.0000
     1.0000   1.0000   1.0000   1.0000   1.0000   1.0000   1.0000   1.0000
     1.0000   1.0000   1.0000   1.0000   1.0000   1.0000   1.0000   1.0000
     1.0000   1.0000   1.0000   1.0000   1.0000   1.0000   1.0000   1.0000
     1.0000   1.0000   1.0000   1.0000   1.0000   1.0000   1.0000   1.0000
     1.0000   1.0000   1.0000   1.0000   1.0000   1.0000   1.0000   1.0000
     1.0000   1.0000   1.0000   1.0000   1.0000   1.0000   1.0000   1.0000
     1.0000   1.0000   1.0000   1.0000   1.0000   1.0000   1.0001   1.0002
     1.0003   1.0003   1.0005   1.0006   1.0008   1.0012   1.0012   1.0032
     1.0035   1.0130   1.0193   1.0214   1.0261   1.0329   1.0364   1.0392
     1.0445   1.0486   1.0577   1.0750   1.0813   1.0830   1.0804   1.0774
     1.0573   0.9986   0.9763   0.8128   0.7608   0.7458   0.5485   0.5258
     0.3267   0.0000   0.0000   0.0000   0.0000   0.0000   0.0000   0.0000
     0.0000   0.0000   0.0000   0.0000   0.0000   0.0000   0.0000   0.0000
     0.0000   0.0000   0.0000   0.0000   0.0000   0.0000   0.0000   0.0000
     0.0000   0.0000   0.0000   0.0000   0.0000   0.0000   0.0000   0.0000
     0.0000   0.0000   0.0000   0.0000   0.0000   0.0000   0.0000   0.0000
     0.0000   0.0000   0.0000   0.0000   0.0000   0.0000   0.0000   0.0000
     0.0000   0.0000   0.0000   0.0000   0.0000   0.0000   0.0000   0.0000
     0.0000   0.0000   0.0000   0.0000   0.0000   0.0000   0.0000   0.0000
     0.0000   0.0000   0.0000   0.0000   0.0000   0.0000   0.0000   0.0000
     0.0000   0.0000   0.0000   0.0000   0.0000   0.0000   0.0000   0.0000
     0.0000   0.0000   0.0000   0.0000   0.0000   0.0000   0.0000   0.0000
     0.0000

          k = 0.0000 0.0000 0.2186 ( 69203 PWs)   bands (ev):

   -75.2795 -75.0422 -74.9269 -74.9117 -74.9093 -74.8910 -74.8849 -74.8812
   -74.8785 -74.8755 -74.8638 -74.8634 -74.8627 -74.8619 -74.8609 -74.8606
   -74.8601 -74.8596 -74.8554 -74.8550 -74.8542 -74.8542 -74.8535 -74.8511
   -74.8498 -74.8481 -74.8473 -74.8470 -74.8442 -74.8382 -74.8317 -41.3326
   -41.2868 -41.1212 -41.0593 -41.0222 -41.0218 -41.0185 -40.9687 -40.9645
   -40.9452 -40.9447 -40.9415 -40.9393 -40.9343 -40.9333 -40.9327 -40.9320
   -40.9315 -40.9311 -40.9308 -40.9305 -40.9298 -40.9293 -40.9284 -40.9280
   -40.9279 -40.9275 -40.9270 -40.9265 -40.9248 -40.9209 -40.9163 -40.9140
   -40.9120 -40.8941 -40.8480 -40.8469 -40.8365 -40.8317 -40.8176 -40.8153
   -40.8134 -40.8121 -40.8102 -40.8034 -40.8002 -40.7997 -40.7984 -40.7978
   -40.7973 -40.7971 -40.7964 -40.7926 -40.7922 -40.7915 -40.7910 -40.7898
   -40.7896 -40.7893 -40.7888 -40.7881 -40.7873 -40.7867 -40.7856 -40.7844
   -40.7825 -40.7801 -40.7788 -40.7783 -40.7745 -40.7731 -40.7628 -40.7618
   -40.7614 -40.7611 -40.7607 -40.7569 -40.7553 -40.7550 -40.7536 -40.7527
   -40.7488 -40.7466 -40.7452 -40.7445 -40.7442 -40.7432 -40.7391 -40.7371
   -40.7365 -40.7356 -40.7312 -40.7217  -4.3175  -4.1369  -3.5281  -3.4363
    -3.4042  -3.2881  -3.2572  -3.0899  -2.9816  -2.8863  -2.8433  -2.7853
    -2.7783  -2.7577  -2.6140  -2.5659  -2.5350  -2.5133  -2.4822  -2.4389
    -2.4322  -2.4153  -2.3143  -2.2936  -2.2726  -2.2213  -2.2103  -2.1236
    -2.1177  -2.0817  -1.9842  -1.9344  -1.3262  -1.2956  -1.1635  -1.1180
    -0.7344  -0.6543  -0.6324  -0.6017  -0.5536  -0.5289  -0.4538  -0.4292
    -0.3679  -0.3579  -0.2886  -0.2092  -0.1540  -0.0729   0.1105   0.1212
     0.1708   0.2230   0.2390   0.3088   0.3484   0.3625   0.4084   0.4795
     0.4830   0.5236   0.5686   0.6625   4.6005   4.7698   4.7805   4.8366
     4.9558   4.9739   5.0199   5.2289   5.2697   5.2905   5.3169   5.3545
     5.3707   5.3776   5.4087   5.4428   5.4795   5.5101   5.5202   5.5339
     5.5491   5.5660   5.6005   5.6082   5.6498   5.6983   5.8069   5.8428
     5.9272   5.9543   5.9684   5.9773   6.0052   6.0976   6.1692   6.2114
     6.3782   6.4014   6.4227   6.4435   6.4749   6.4800   6.4909   6.5430
     6.5964   6.6474   6.7110   6.7414   6.7983   6.8390   6.8526   6.8799
     6.9000   6.9275   6.9730   7.0333   7.0709   7.1184   7.1966   7.2435
     7.2576   7.2884   7.3010   7.3341   7.3492   7.4128   7.4167   7.4416
     7.4925   7.5283   7.6208   7.6787   7.7387   7.7688   7.7826   7.8428
     7.8669   7.8800   7.8981   7.8996   7.9434   7.9830   8.0102   8.0362
     8.0769   8.0987   8.1147   8.1294   8.1705   8.1940   8.2286   8.2663
     8.2925   8.3371   8.3532   8.3626   8.3889   8.3969   8.4103   8.4178
     8.4294   8.4485   8.4547   8.4706   8.4912   8.5192   8.5345   8.5474
     8.5777   8.5953   8.6213   8.6770   8.7027   8.7241   8.7681   8.7864
     8.8017   8.8216   8.8392   8.8574   8.8645   8.8782   8.9337   8.9948
     9.0568   9.0703   9.1184   9.1721   9.2073   9.2502   9.3303   9.3568
     9.3972   9.4485   9.4773   9.4818   9.4925   9.5078   9.5239   9.5578
     9.5753   9.6042   9.6656   9.6712   9.7657   9.8178   9.8474   9.8679
     9.9397  10.0188  10.0349  10.1333  10.1843  10.2435  10.2624  10.3704
    10.4326  10.4446  10.4855  10.4981  10.5033  10.5325  10.5691  10.5967
    10.6757  10.6888  10.7217  10.7488  10.7783  10.7929  10.8095  10.8186
    10.8456  10.8572  10.8862  10.9177  10.9389  10.9995  11.0038  11.0649
    11.0867  11.1251  11.1362  11.1598  11.1854  11.2128  11.2245  11.2399
    11.2485  11.2531  11.2628  11.2770  11.2827  11.2907  11.2963  11.2975
    11.3216  11.3460  11.3652  11.3840  11.4111  11.4199  11.4284  11.4387
    11.4625  11.4700  11.4791  11.4894  11.4926  11.5023  11.5113  11.5122
    11.5236  11.5342  11.5555  11.5712  11.5864  11.6186  11.6333  11.6473
    11.6520  11.7019  11.7114  11.7242  11.7591  11.7813  11.8034  11.8244
    11.8560  11.9013  11.9217  11.9430  11.9528  11.9625  11.9908  11.9977
    12.0025  12.0047  12.0315  12.0393  12.0535  12.0606  12.0934  12.1207
    12.1338  12.1399  12.1635  12.1866  12.2026  12.2217  12.2569  12.3094
    12.4001  13.1650  13.1843  13.2732  13.3005  13.3524  13.4293  13.4477
    13.4720  13.4864  13.5167  13.5263  13.5814  13.5971  13.6244  13.6697
    13.6833  13.7071  13.7119  13.7229  13.7556  13.7795  13.7964  13.8094
    13.8311  13.8391  13.8520  13.8628  13.8831  13.9330  13.9475  13.9608
    13.9971  14.0469  14.0588  14.0687  14.1341  14.1485  14.1532  14.1791
    14.1946  14.2001  14.2165  14.2747  14.3000  14.3267  14.3492  14.3837
    14.4307  14.4359  14.4406  14.4478  14.4567  14.4696  14.4862  14.5059
    14.5097  14.5276  14.5681  14.5703  14.6017  14.6266  14.6391  14.6493
    14.6605  14.7183  14.7448  14.7995  14.8404  14.8544  14.8893  14.9182
    14.9643  14.9891  15.0406  15.0532  15.0577  15.1233  15.1388  15.1636
    15.1777  15.2045  15.2353  15.2944  15.3056  15.3484  15.3738  15.3899
    15.4229

     occupation numbers 
     1.0000   1.0000   1.0000   1.0000   1.0000   1.0000   1.0000   1.0000
     1.0000   1.0000   1.0000   1.0000   1.0000   1.0000   1.0000   1.0000
     1.0000   1.0000   1.0000   1.0000   1.0000   1.0000   1.0000   1.0000
     1.0000   1.0000   1.0000   1.0000   1.0000   1.0000   1.0000   1.0000
     1.0000   1.0000   1.0000   1.0000   1.0000   1.0000   1.0000   1.0000
     1.0000   1.0000   1.0000   1.0000   1.0000   1.0000   1.0000   1.0000
     1.0000   1.0000   1.0000   1.0000   1.0000   1.0000   1.0000   1.0000
     1.0000   1.0000   1.0000   1.0000   1.0000   1.0000   1.0000   1.0000
     1.0000   1.0000   1.0000   1.0000   1.0000   1.0000   1.0000   1.0000
     1.0000   1.0000   1.0000   1.0000   1.0000   1.0000   1.0000   1.0000
     1.0000   1.0000   1.0000   1.0000   1.0000   1.0000   1.0000   1.0000
     1.0000   1.0000   1.0000   1.0000   1.0000   1.0000   1.0000   1.0000
     1.0000   1.0000   1.0000   1.0000   1.0000   1.0000   1.0000   1.0000
     1.0000   1.0000   1.0000   1.0000   1.0000   1.0000   1.0000   1.0000
     1.0000   1.0000   1.0000   1.0000   1.0000   1.0000   1.0000   1.0000
     1.0000   1.0000   1.0000   1.0000   1.0000   1.0000   1.0000   1.0000
     1.0000   1.0000   1.0000   1.0000   1.0000   1.0000   1.0000   1.0000
     1.0000   1.0000   1.0000   1.0000   1.0000   1.0000   1.0000   1.0000
     1.0000   1.0000   1.0000   1.0000   1.0000   1.0000   1.0000   1.0000
     1.0000   1.0000   1.0000   1.0000   1.0000   1.0000   1.0000   1.0000
     1.0000   1.0000   1.0000   1.0000   1.0000   1.0000   1.0000   1.0000
     1.0000   1.0000   1.0000   1.0000   1.0000   1.0000   1.0000   1.0000
     1.0000   1.0000   1.0000   1.0000   1.0000   1.0000   1.0000   1.0000
     1.0000   1.0000   1.0000   1.0000   1.0000   1.0000   1.0000   1.0000
     1.0000   1.0000   1.0000   1.0000   1.0000   1.0000   1.0000   1.0000
     1.0000   1.0000   1.0000   1.0000   1.0000   1.0000   1.0000   1.0000
     1.0000   1.0000   1.0000   1.0000   1.0000   1.0000   1.0000   1.0000
     1.0000   1.0000   1.0000   1.0000   1.0000   1.0000   1.0000   1.0000
     1.0000   1.0000   1.0000   1.0000   1.0000   1.0000   1.0000   1.0000
     1.0000   1.0000   1.0000   1.0000   1.0000   1.0000   1.0000   1.0000
     1.0000   1.0000   1.0000   1.0000   1.0000   1.0000   1.0000   1.0000
     1.0000   1.0000   1.0000   1.0000   1.0000   1.0000   1.0000   1.0000
     1.0000   1.0000   1.0000   1.0000   1.0000   1.0000   1.0000   1.0000
     1.0000   1.0000   1.0000   1.0000   1.0000   1.0000   1.0000   1.0000
     1.0000   1.0000   1.0000   1.0000   1.0000   1.0000   1.0000   1.0000
     1.0000   1.0000   1.0000   1.0000   1.0000   1.0000   1.0000   1.0000
     1.0000   1.0000   1.0000   1.0000   1.0000   1.0000   1.0000   1.0000
     1.0000   1.0000   1.0000   1.0000   1.0000   1.0000   1.0000   1.0000
     1.0000   1.0000   1.0000   1.0000   1.0000   1.0000   1.0000   1.0000
     1.0000   1.0000   1.0000   1.0000   1.0000   1.0000   1.0000   1.0000
     1.0000   1.0000   1.0000   1.0000   1.0000   1.0000   1.0000   1.0000
     1.0000   1.0000   1.0000   1.0000   1.0000   1.0000   1.0000   1.0000
     1.0000   1.0000   1.0000   1.0000   1.0000   1.0000   1.0000   1.0000
     1.0000   1.0000   1.0000   1.0000   1.0000   1.0000   1.0000   1.0000
     1.0000   1.0000   1.0000   1.0000   1.0000   1.0000   1.0000   1.0000
     1.0000   1.0000   1.0000   1.0000   1.0000   1.0000   1.0000   1.0000
     1.0000   1.0000   1.0000   1.0000   1.0000   1.0000   1.0000   1.0000
     1.0000   1.0000   1.0000   1.0000   1.0000   1.0000   1.0000   1.0000
     1.0000   1.0000   1.0000   1.0000   1.0000   1.0000   1.0000   1.0000
     1.0000   1.0000   1.0000   1.0000   1.0000   1.0000   1.0000   1.0000
     1.0000   1.0000   1.0000   1.0000   1.0000   1.0000   1.0001   1.0001
     1.0001   1.0004   1.0005   1.0006   1.0014   1.0022   1.0034   1.0052
     1.0090   1.0183   1.0242   1.0316   1.0354   1.0394   1.0520   1.0552
     1.0574   1.0584   1.0702   1.0732   1.0780   1.0799   1.0830   1.0754
     1.0675   1.0626   1.0372   1.0007   0.9686   0.9230   0.8203   0.6365
     0.3204   0.0000   0.0000   0.0000   0.0000   0.0000   0.0000   0.0000
     0.0000   0.0000   0.0000   0.0000   0.0000   0.0000   0.0000   0.0000
     0.0000   0.0000   0.0000   0.0000   0.0000   0.0000   0.0000   0.0000
     0.0000   0.0000   0.0000   0.0000   0.0000   0.0000   0.0000   0.0000
     0.0000   0.0000   0.0000   0.0000   0.0000   0.0000   0.0000   0.0000
     0.0000   0.0000   0.0000   0.0000   0.0000   0.0000   0.0000   0.0000
     0.0000   0.0000   0.0000   0.0000   0.0000   0.0000   0.0000   0.0000
     0.0000   0.0000   0.0000   0.0000   0.0000   0.0000   0.0000   0.0000
     0.0000   0.0000   0.0000   0.0000   0.0000   0.0000   0.0000   0.0000
     0.0000   0.0000   0.0000   0.0000   0.0000   0.0000   0.0000   0.0000
     0.0000   0.0000   0.0000   0.0000   0.0000   0.0000   0.0000   0.0000
     0.0000

          k = 0.0000-0.4095 0.0000 ( 69190 PWs)   bands (ev):

   -75.2795 -75.0421 -74.9269 -74.9117 -74.9093 -74.8910 -74.8848 -74.8812
   -74.8784 -74.8755 -74.8638 -74.8633 -74.8626 -74.8619 -74.8610 -74.8604
   -74.8601 -74.8597 -74.8553 -74.8549 -74.8542 -74.8541 -74.8536 -74.8511
   -74.8498 -74.8481 -74.8472 -74.8471 -74.8442 -74.8382 -74.8317 -41.3321
   -41.2873 -41.1209 -41.0588 -41.0218 -41.0215 -41.0187 -40.9684 -40.9643
   -40.9451 -40.9445 -40.9412 -40.9389 -40.9337 -40.9330 -40.9323 -40.9313
   -40.9310 -40.9308 -40.9303 -40.9302 -40.9299 -40.9290 -40.9280 -40.9278
   -40.9276 -40.9272 -40.9270 -40.9262 -40.9246 -40.9206 -40.9159 -40.9137
   -40.9118 -40.8937 -40.8482 -40.8466 -40.8361 -40.8313 -40.8172 -40.8151
   -40.8130 -40.8117 -40.8104 -40.8029 -40.7998 -40.7993 -40.7985 -40.7979
   -40.7968 -40.7966 -40.7963 -40.7931 -40.7916 -40.7911 -40.7908 -40.7894
   -40.7892 -40.7891 -40.7885 -40.7877 -40.7871 -40.7866 -40.7855 -40.7842
   -40.7821 -40.7808 -40.7791 -40.7786 -40.7742 -40.7727 -40.7627 -40.7626
   -40.7614 -40.7612 -40.7610 -40.7568 -40.7556 -40.7554 -40.7545 -40.7534
   -40.7493 -40.7458 -40.7455 -40.7452 -40.7443 -40.7441 -40.7431 -40.7376
   -40.7369 -40.7358 -40.7320 -40.7223  -4.1557  -4.1263  -3.7194  -3.6295
    -3.6058  -3.5894  -3.0140  -2.7853  -2.7534  -2.7500  -2.7038  -2.5779
    -2.5724  -2.5613  -2.5559  -2.5430  -2.5238  -2.5172  -2.5117  -2.4942
    -2.4677  -2.4638  -2.4581  -2.4155  -2.3609  -2.3196  -2.3165  -2.2821
    -2.2033  -2.1604  -2.1471  -2.1323  -1.0326  -0.9762  -0.9630  -0.9509
    -0.7891  -0.6924  -0.6878  -0.6823  -0.6789  -0.6346  -0.6219  -0.5710
    -0.3390  -0.3095  -0.3034  -0.1871   0.0441   0.0560   0.0666   0.0705
     0.1383   0.1597   0.2224   0.2890   0.3029   0.3169   0.4432   0.4544
     0.4638   0.5293   0.5718   0.6496   4.6461   4.8244   4.8776   5.2198
     5.2328   5.2389   5.2519   5.2840   5.2990   5.3148   5.3311   5.3489
     5.3563   5.3608   5.3667   5.3725   5.3779   5.3814   5.3930   5.3999
     5.4086   5.4327   5.4461   5.4516   5.4814   5.5284   5.7028   5.7455
     5.7605   5.7734   5.9988   6.1530   6.1830   6.1984   6.2523   6.2778
     6.3290   6.3416   6.3648   6.3944   6.5508   6.6337   6.6437   6.6532
     6.6616   6.6798   6.7078   6.7411   6.7500   6.7682   6.7752   6.7996
     6.8286   6.8531   7.0223   7.1039   7.1169   7.1790   7.2355   7.2460
     7.2679   7.3334   7.4599   7.5185   7.5691   7.5732   7.5937   7.6097
     7.6128   7.6869   7.6957   7.7162   7.7269   7.7621   7.7931   7.8438
     7.8565   7.8683   7.8734   7.8864   7.8978   7.9056   7.9171   7.9253
     7.9432   7.9530   7.9796   7.9994   8.0046   8.0263   8.0292   8.0545
     8.0927   8.1394   8.1534   8.1643   8.1945   8.2649   8.2765   8.3071
     8.3321   8.3617   8.3727   8.3900   8.3988   8.4334   8.4584   8.4841
     8.5391   8.6294   8.7698   8.8094   8.8185   8.8348   8.8489   8.8856
     8.8859   8.9107   8.9502   8.9801   9.0335   9.0553   9.0613   9.1219
     9.1416   9.1761   9.1851   9.2000   9.2623   9.2761   9.3464   9.4004
     9.4433   9.4567   9.4667   9.5196   9.5282   9.5345   9.5461   9.5599
     9.5619   9.5814   9.5858   9.6001   9.6655   9.7058   9.7946   9.8882
     9.9060   9.9787  10.0577  10.0974  10.1234  10.1673  10.3176  10.4075
    10.4188  10.4242  10.4478  10.5526  10.5977  10.6130  10.6299  10.6496
    10.7566  10.7724  10.7912  10.8003  10.8076  10.8210  10.8406  10.8490
    10.8654  10.9075  10.9101  10.9231  10.9486  10.9779  10.9888  11.0010
    11.0064  11.0240  11.1079  11.1220  11.1952  11.2069  11.2131  11.2229
    11.2814  11.3013  11.3049  11.3119  11.3161  11.3193  11.3268  11.3324
    11.3390  11.3504  11.3606  11.3826  11.3996  11.4276  11.4486  11.4549
    11.4597  11.4764  11.4861  11.5017  11.5030  11.5206  11.5227  11.5350
    11.5388  11.5444  11.5539  11.5620  11.6242  11.6365  11.6414  11.6541
    11.6876  11.7017  11.7130  11.7596  11.7732  11.8083  11.8192  11.8366
    11.8653  11.8860  11.9006  11.9113  11.9300  11.9357  11.9413  11.9524
    11.9756  11.9786  11.9795  11.9862  12.0076  12.0122  12.0237  12.0394
    12.0528  12.0660  12.0927  12.1240  12.1590  12.2404  12.2598  12.2782
    12.4248  13.2473  13.2985  13.3354  13.3797  13.3925  13.4012  13.5235
    13.5511  13.5612  13.5988  13.6131  13.6186  13.6305  13.6383  13.6616
    13.6736  13.7287  13.7454  13.7494  13.7606  13.8259  13.8512  13.8705
    13.8781  13.8817  13.9097  13.9221  13.9422  13.9558  13.9615  13.9832
    13.9906  14.0065  14.0215  14.0289  14.0295  14.0452  14.0509  14.0594
    14.1271  14.1360  14.1393  14.1604  14.2059  14.2406  14.2556  14.2583
    14.2604  14.2695  14.2699  14.2733  14.3037  14.3117  14.3223  14.3553
    14.4064  14.4332  14.4506  14.7233  14.8070  14.8292  14.8379  14.8493
    14.8808  14.8963  14.9015  14.9677  14.9844  15.0092  15.0483  15.0612
    15.0709  15.0961  15.0969  15.1167  15.1191  15.1468  15.1608  15.2071
    15.2444  15.2563  15.2592  15.3062  15.3162  15.3250  15.3297  15.3362
    15.3840

     occupation numbers 
     1.0000   1.0000   1.0000   1.0000   1.0000   1.0000   1.0000   1.0000
     1.0000   1.0000   1.0000   1.0000   1.0000   1.0000   1.0000   1.0000
     1.0000   1.0000   1.0000   1.0000   1.0000   1.0000   1.0000   1.0000
     1.0000   1.0000   1.0000   1.0000   1.0000   1.0000   1.0000   1.0000
     1.0000   1.0000   1.0000   1.0000   1.0000   1.0000   1.0000   1.0000
     1.0000   1.0000   1.0000   1.0000   1.0000   1.0000   1.0000   1.0000
     1.0000   1.0000   1.0000   1.0000   1.0000   1.0000   1.0000   1.0000
     1.0000   1.0000   1.0000   1.0000   1.0000   1.0000   1.0000   1.0000
     1.0000   1.0000   1.0000   1.0000   1.0000   1.0000   1.0000   1.0000
     1.0000   1.0000   1.0000   1.0000   1.0000   1.0000   1.0000   1.0000
     1.0000   1.0000   1.0000   1.0000   1.0000   1.0000   1.0000   1.0000
     1.0000   1.0000   1.0000   1.0000   1.0000   1.0000   1.0000   1.0000
     1.0000   1.0000   1.0000   1.0000   1.0000   1.0000   1.0000   1.0000
     1.0000   1.0000   1.0000   1.0000   1.0000   1.0000   1.0000   1.0000
     1.0000   1.0000   1.0000   1.0000   1.0000   1.0000   1.0000   1.0000
     1.0000   1.0000   1.0000   1.0000   1.0000   1.0000   1.0000   1.0000
     1.0000   1.0000   1.0000   1.0000   1.0000   1.0000   1.0000   1.0000
     1.0000   1.0000   1.0000   1.0000   1.0000   1.0000   1.0000   1.0000
     1.0000   1.0000   1.0000   1.0000   1.0000   1.0000   1.0000   1.0000
     1.0000   1.0000   1.0000   1.0000   1.0000   1.0000   1.0000   1.0000
     1.0000   1.0000   1.0000   1.0000   1.0000   1.0000   1.0000   1.0000
     1.0000   1.0000   1.0000   1.0000   1.0000   1.0000   1.0000   1.0000
     1.0000   1.0000   1.0000   1.0000   1.0000   1.0000   1.0000   1.0000
     1.0000   1.0000   1.0000   1.0000   1.0000   1.0000   1.0000   1.0000
     1.0000   1.0000   1.0000   1.0000   1.0000   1.0000   1.0000   1.0000
     1.0000   1.0000   1.0000   1.0000   1.0000   1.0000   1.0000   1.0000
     1.0000   1.0000   1.0000   1.0000   1.0000   1.0000   1.0000   1.0000
     1.0000   1.0000   1.0000   1.0000   1.0000   1.0000   1.0000   1.0000
     1.0000   1.0000   1.0000   1.0000   1.0000   1.0000   1.0000   1.0000
     1.0000   1.0000   1.0000   1.0000   1.0000   1.0000   1.0000   1.0000
     1.0000   1.0000   1.0000   1.0000   1.0000   1.0000   1.0000   1.0000
     1.0000   1.0000   1.0000   1.0000   1.0000   1.0000   1.0000   1.0000
     1.0000   1.0000   1.0000   1.0000   1.0000   1.0000   1.0000   1.0000
     1.0000   1.0000   1.0000   1.0000   1.0000   1.0000   1.0000   1.0000
     1.0000   1.0000   1.0000   1.0000   1.0000   1.0000   1.0000   1.0000
     1.0000   1.0000   1.0000   1.0000   1.0000   1.0000   1.0000   1.0000
     1.0000   1.0000   1.0000   1.0000   1.0000   1.0000   1.0000   1.0000
     1.0000   1.0000   1.0000   1.0000   1.0000   1.0000   1.0000   1.0000
     1.0000   1.0000   1.0000   1.0000   1.0000   1.0000   1.0000   1.0000
     1.0000   1.0000   1.0000   1.0000   1.0000   1.0000   1.0000   1.0000
     1.0000   1.0000   1.0000   1.0000   1.0000   1.0000   1.0000   1.0000
     1.0000   1.0000   1.0000   1.0000   1.0000   1.0000   1.0000   1.0000
[...]
     atom   73 type  1   force =    -0.00011029    0.00014623    0.00030840
     atom   74 type  1   force =     0.00003609   -0.00004308    0.00019925
     atom   75 type  2   force =     0.00489959   -0.00285041   -0.00005825
     atom   76 type  2   force =    -0.00479992    0.00303125    0.00003508
     atom   77 type  2   force =    -0.00500869   -0.00301655   -0.00002130
     atom   78 type  2   force =     0.00517297    0.00323558    0.00021340
     atom   79 type  1   force =    -0.00184369    0.00067157   -0.00115199
     atom   80 type  1   force =     0.00073295   -0.00084427   -0.00177151
     atom   81 type  2   force =     0.00521322   -0.00258147    0.00032352
     atom   82 type  2   force =    -0.00516759    0.00312656    0.00024700
     atom   83 type  2   force =    -0.00503593   -0.00300243    0.00020262
     atom   84 type  2   force =     0.00633054    0.00378515   -0.00005438
     atom   85 type  1   force =     0.00094506   -0.00050989    0.00189255
     atom   86 type  2   force =     0.00276743   -0.01123206    0.00001152
     atom   87 type  2   force =    -0.00497217    0.00332437   -0.00000213
     atom   88 type  2   force =    -0.00512719   -0.00308653   -0.00024667
     atom   89 type  2   force =     0.00616425    0.00365794    0.00000568
     atom   90 type  1   force =    -0.00045989    0.00022745    0.00150217
     atom   91 type  1   force =    -0.00004060   -0.00008874   -0.00047634
     atom   92 type  2   force =     0.00511019   -0.00259352   -0.00029100
     atom   93 type  2   force =    -0.00519221    0.00321403   -0.00029862
     atom   94 type  2   force =    -0.00499691   -0.00304673    0.00000374
     atom   95 type  2   force =     0.00527885    0.00324085   -0.00026795
     atom   96 type  3   force =     0.00000000    0.00000000    0.00000000
     The Hubbard contrib.    to forces
     atom    1 type  1   force =     0.00000000    0.00000000    0.00000000
     atom    2 type  1   force =     0.00000000    0.00000000    0.00000000
     atom    3 type  2   force =     0.00000000    0.00000000    0.00000000
     atom    4 type  2   force =     0.00000000    0.00000000    0.00000000
     atom    5 type  2   force =     0.00000000    0.00000000    0.00000000
     atom    6 type  2   force =     0.00000000    0.00000000    0.00000000
     atom    7 type  1   force =     0.00000000    0.00000000    0.00000000
     atom    8 type  1   force =     0.00000000    0.00000000    0.00000000
     atom    9 type  2   force =     0.00000000    0.00000000    0.00000000
     atom   10 type  2   force =     0.00000000    0.00000000    0.00000000
     atom   11 type  2   force =     0.00000000    0.00000000    0.00000000
     atom   12 type  2   force =     0.00000000    0.00000000    0.00000000
     atom   13 type  1   force =     0.00000000    0.00000000    0.00000000
     atom   14 type  1   force =     0.00000000    0.00000000    0.00000000
     atom   15 type  2   force =     0.00000000    0.00000000    0.00000000
     atom   16 type  2   force =     0.00000000    0.00000000    0.00000000
     atom   17 type  2   force =     0.00000000    0.00000000    0.00000000
     atom   18 type  2   force =     0.00000000    0.00000000    0.00000000
     atom   19 type  1   force =     0.00000000    0.00000000    0.00000000
     atom   20 type  1   force =     0.00000000    0.00000000    0.00000000
     atom   21 type  2   force =     0.00000000    0.00000000    0.00000000
     atom   22 type  2   force =     0.00000000    0.00000000    0.00000000
     atom   23 type  2   force =     0.00000000    0.00000000    0.00000000
     atom   24 type  2   force =     0.00000000    0.00000000    0.00000000
     atom   25 type  1   force =     0.00000000    0.00000000    0.00000000
     atom   26 type  1   force =     0.00000000    0.00000000    0.00000000
     atom   27 type  2   force =     0.00000000    0.00000000    0.00000000
     atom   28 type  2   force =     0.00000000    0.00000000    0.00000000
     atom   29 type  2   force =     0.00000000    0.00000000    0.00000000
     atom   30 type  2   force =     0.00000000    0.00000000    0.00000000
     atom   31 type  1   force =     0.00000000    0.00000000    0.00000000
     atom   32 type  1   force =     0.00000000    0.00000000    0.00000000
     atom   33 type  2   force =     0.00000000    0.00000000    0.00000000
     atom   34 type  2   force =     0.00000000    0.00000000    0.00000000
     atom   35 type  2   force =     0.00000000    0.00000000    0.00000000
     atom   36 type  2   force =     0.00000000    0.00000000    0.00000000
     atom   37 type  1   force =     0.00000000    0.00000000    0.00000000
     atom   38 type  1   force =     0.00000000    0.00000000    0.00000000
     atom   39 type  2   force =     0.00000000    0.00000000    0.00000000
     atom   40 type  2   force =     0.00000000    0.00000000    0.00000000
     atom   41 type  2   force =     0.00000000    0.00000000    0.00000000
     atom   42 type  2   force =     0.00000000    0.00000000    0.00000000
     atom   43 type  1   force =     0.00000000    0.00000000    0.00000000
     atom   44 type  1   force =     0.00000000    0.00000000    0.00000000
     atom   45 type  2   force =     0.00000000    0.00000000    0.00000000
     atom   46 type  2   force =     0.00000000    0.00000000    0.00000000
     atom   47 type  2   force =     0.00000000    0.00000000    0.00000000
     atom   48 type  2   force =     0.00000000    0.00000000    0.00000000
     atom   49 type  1   force =     0.00000000    0.00000000    0.00000000
     atom   50 type  1   force =     0.00000000    0.00000000    0.00000000
     atom   51 type  2   force =     0.00000000    0.00000000    0.00000000
     atom   52 type  2   force =     0.00000000    0.00000000    0.00000000
     atom   53 type  2   force =     0.00000000    0.00000000    0.00000000
     atom   54 type  2   force =     0.00000000    0.00000000    0.00000000
     atom   55 type  1   force =     0.00000000    0.00000000    0.00000000
     atom   56 type  1   force =     0.00000000    0.00000000    0.00000000
     atom   57 type  2   force =     0.00000000    0.00000000    0.00000000
     atom   58 type  2   force =     0.00000000    0.00000000    0.00000000
     atom   59 type  2   force =     0.00000000    0.00000000    0.00000000
     atom   60 type  2   force =     0.00000000    0.00000000    0.00000000
     atom   61 type  1   force =     0.00000000    0.00000000    0.00000000
     atom   62 type  1   force =     0.00000000    0.00000000    0.00000000
     atom   63 type  2   force =     0.00000000    0.00000000    0.00000000
     atom   64 type  2   force =     0.00000000    0.00000000    0.00000000
     atom   65 type  2   force =     0.00000000    0.00000000    0.00000000
     atom   66 type  2   force =     0.00000000    0.00000000    0.00000000
     atom   67 type  1   force =     0.00000000    0.00000000    0.00000000
     atom   68 type  1   force =     0.00000000    0.00000000    0.00000000
     atom   69 type  2   force =     0.00000000    0.00000000    0.00000000
     atom   70 type  2   force =     0.00000000    0.00000000    0.00000000
     atom   71 type  2   force =     0.00000000    0.00000000    0.00000000
     atom   72 type  2   force =     0.00000000    0.00000000    0.00000000
     atom   73 type  1   force =     0.00000000    0.00000000    0.00000000
     atom   74 type  1   force =     0.00000000    0.00000000    0.00000000
     atom   75 type  2   force =     0.00000000    0.00000000    0.00000000
     atom   76 type  2   force =     0.00000000    0.00000000    0.00000000
     atom   77 type  2   force =     0.00000000    0.00000000    0.00000000
     atom   78 type  2   force =     0.00000000    0.00000000    0.00000000
     atom   79 type  1   force =     0.00000000    0.00000000    0.00000000
     atom   80 type  1   force =     0.00000000    0.00000000    0.00000000
     atom   81 type  2   force =     0.00000000    0.00000000    0.00000000
     atom   82 type  2   force =     0.00000000    0.00000000    0.00000000
     atom   83 type  2   force =     0.00000000    0.00000000    0.00000000
     atom   84 type  2   force =     0.00000000    0.00000000    0.00000000
     atom   85 type  1   force =     0.00000000    0.00000000    0.00000000
     atom   86 type  2   force =     0.00000000    0.00000000    0.00000000
     atom   87 type  2   force =     0.00000000    0.00000000    0.00000000
     atom   88 type  2   force =     0.00000000    0.00000000    0.00000000
     atom   89 type  2   force =     0.00000000    0.00000000    0.00000000
     atom   90 type  1   force =     0.00000000    0.00000000    0.00000000
     atom   91 type  1   force =     0.00000000    0.00000000    0.00000000
     atom   92 type  2   force =     0.00000000    0.00000000    0.00000000
     atom   93 type  2   force =     0.00000000    0.00000000    0.00000000
     atom   94 type  2   force =     0.00000000    0.00000000    0.00000000
     atom   95 type  2   force =     0.00000000    0.00000000    0.00000000
     atom   96 type  3   force =     0.00000000    0.00000000    0.00000000
     The SCF correction term to forces
     atom    1 type  1   force =     0.00000109   -0.00000554    0.00007412
     atom    2 type  1   force =     0.00000145    0.00001353    0.00016996
     atom    3 type  2   force =    -0.00000673    0.00000954    0.00002804
     atom    4 type  2   force =     0.00000265   -0.00000716    0.00004388
     atom    5 type  2   force =     0.00000140    0.00000935    0.00006334
     atom    6 type  2   force =    -0.00000601   -0.00000439    0.00005720
     atom    7 type  1   force =     0.00001374   -0.00001287    0.00014914
     atom    8 type  1   force =     0.00000881    0.00002618    0.00005147
     atom    9 type  2   force =    -0.00000242    0.00000973    0.00005680
     atom   10 type  2   force =     0.00000493    0.00001027    0.00005696
     atom   11 type  2   force =     0.00000849    0.00001407    0.00001769
     atom   12 type  2   force =    -0.00001143   -0.00000295    0.00002123
     atom   13 type  1   force =     0.00001480   -0.00001431   -0.00006566
     atom   14 type  1   force =    -0.00004034    0.00000423   -0.00017442
     atom   15 type  2   force =    -0.00000430    0.00000841   -0.00002837
     atom   16 type  2   force =     0.00000524   -0.00001410   -0.00004365
     atom   17 type  2   force =    -0.00001572    0.00000903   -0.00006011
     atom   18 type  2   force =    -0.00001518   -0.00000689   -0.00006669
     atom   19 type  1   force =     0.00000327   -0.00000494   -0.00015461
     atom   20 type  1   force =    -0.00003706   -0.00002046   -0.00003980
     atom   21 type  2   force =    -0.00001420    0.00000907   -0.00005656
     atom   22 type  2   force =    -0.00001888   -0.00003776   -0.00005908
     atom   23 type  2   force =    -0.00002463    0.00000341   -0.00001812
     atom   24 type  2   force =    -0.00001015   -0.00000677   -0.00001118
     atom   25 type  1   force =     0.00000021    0.00000680    0.00008164
     atom   26 type  1   force =    -0.00000879   -0.00000885    0.00017525
     atom   27 type  2   force =    -0.00000764    0.00000076    0.00003137
     atom   28 type  2   force =    -0.00000055    0.00000002    0.00003456
     atom   29 type  2   force =     0.00001315   -0.00000825    0.00006199
     atom   30 type  2   force =    -0.00000641   -0.00000057    0.00007346
     atom   31 type  1   force =     0.00000442    0.00002085    0.00016248
     atom   32 type  1   force =     0.00000140   -0.00001686    0.00006256
     atom   33 type  2   force =    -0.00000198   -0.00000520    0.00005965
     atom   34 type  2   force =    -0.00000065   -0.00001333    0.00005954
     atom   35 type  2   force =     0.00001431   -0.00000937    0.00002283
     atom   36 type  2   force =    -0.00000951    0.00000169    0.00001533
     atom   37 type  1   force =     0.00001569    0.00002231   -0.00008280
     atom   38 type  1   force =    -0.00004143    0.00001592   -0.00020090
     atom   39 type  2   force =    -0.00000376   -0.00000015   -0.00003021
     atom   40 type  2   force =     0.00000256   -0.00001186   -0.00003518
     atom   41 type  2   force =     0.00000852   -0.00000932   -0.00006364
     atom   42 type  2   force =    -0.00006176    0.00001425   -0.00009519
     atom   43 type  1   force =     0.00000292    0.00000547   -0.00017497
     atom   44 type  1   force =    -0.00004626    0.00003151   -0.00004394
     atom   45 type  2   force =    -0.00001579    0.00000085   -0.00006056
     atom   46 type  2   force =    -0.00001220    0.00000795   -0.00005879
     atom   47 type  2   force =     0.00001004   -0.00000722   -0.00002133
     atom   48 type  2   force =    -0.00004847    0.00002102    0.00001932
     atom   49 type  1   force =    -0.00000113   -0.00000426    0.00008250
     atom   50 type  1   force =     0.00000273    0.00000778    0.00015310
     atom   51 type  2   force =    -0.00000108   -0.00000119    0.00003156
     atom   52 type  2   force =     0.00000756    0.00000150    0.00002756
     atom   53 type  2   force =     0.00000400    0.00000751    0.00006805
     atom   54 type  2   force =    -0.00001123    0.00000108    0.00005830
     atom   55 type  1   force =    -0.00001140   -0.00000946    0.00014300
     atom   56 type  1   force =     0.00000188    0.00000546    0.00005871
     atom   57 type  2   force =    -0.00000902    0.00000735    0.00005317
     atom   58 type  2   force =     0.00001032    0.00000848    0.00005254
     atom   59 type  2   force =     0.00001427    0.00001828    0.00000207
     atom   60 type  2   force =    -0.00000537   -0.00000186    0.00002168
     atom   61 type  1   force =    -0.00001505   -0.00001778   -0.00008493
     atom   62 type  1   force =     0.00004308   -0.00002069   -0.00017266
     atom   63 type  2   force =    -0.00001186    0.00000201   -0.00003126
     atom   64 type  2   force =     0.00001648    0.00000300   -0.00002608
     atom   65 type  2   force =     0.00005700   -0.00000599   -0.00008069
     atom   66 type  2   force =    -0.00000369   -0.00000060   -0.00005886
     atom   67 type  1   force =    -0.00000286   -0.00000606   -0.00014181
     atom   68 type  1   force =     0.00004471   -0.00002976   -0.00004073
     atom   69 type  2   force =     0.00000886   -0.00000996   -0.00005271
     atom   70 type  2   force =     0.00001884    0.00000183   -0.00005496
     atom   71 type  2   force =     0.00004778   -0.00001842    0.00001894
     atom   72 type  2   force =    -0.00000949    0.00000471   -0.00002078
     atom   73 type  1   force =     0.00000200    0.00000209    0.00017737
     atom   74 type  1   force =     0.00000324   -0.00001413    0.00016531
     atom   75 type  2   force =    -0.00000348    0.00000781    0.00004593
     atom   76 type  2   force =     0.00000912   -0.00001131    0.00003072
     atom   77 type  2   force =     0.00000399   -0.00000052    0.00005553
     atom   78 type  2   force =     0.00000118   -0.00000300    0.00006332
     atom   79 type  1   force =    -0.00001744    0.00001854    0.00015005
     atom   80 type  1   force =    -0.00000507   -0.00003999    0.00005449
     atom   81 type  2   force =    -0.00001302   -0.00000901    0.00005891
     atom   82 type  2   force =     0.00001197   -0.00001564    0.00005621
     atom   83 type  2   force =     0.00000235   -0.00000685    0.00002159
     atom   84 type  2   force =     0.00000110    0.00000240    0.00001576
     atom   85 type  1   force =     0.00003520   -0.00000131   -0.00017685
     atom   86 type  2   force =    -0.00001936    0.00002127   -0.00004539
     atom   87 type  2   force =     0.00001365   -0.00001443   -0.00002790
     atom   88 type  2   force =     0.00001117   -0.00000177   -0.00006599
     atom   89 type  2   force =     0.00002206    0.00000015   -0.00005849
     atom   90 type  1   force =     0.00000473   -0.00000039   -0.00019365
     atom   91 type  1   force =     0.00003774    0.00002019   -0.00003676
     atom   92 type  2   force =     0.00001586    0.00003954   -0.00006149
     atom   93 type  2   force =     0.00001749   -0.00001002   -0.00005949
     atom   94 type  2   force =     0.00000892    0.00000574   -0.00001085
     atom   95 type  2   force =     0.00002529   -0.00000263   -0.00001745
     atom   96 type  3   force =    -0.00000322    0.00000210   -0.00000590

     Total force =     0.007587     Total SCF correction =     0.000856
     SCF correction compared to forces is large: reduce conv_thr to get better values

     Writing all to output data dir /tmp/neb_canonical_marc_96at_qe_VFe/image_07/tmp/image_07.save/ :
     XML data file, charge density, pseudopotentials, collected wavefunctions
 
     init_run     :      8.25s CPU     13.11s WALL (       1 calls)
     electrons    :    417.40s CPU    544.38s WALL (       1 calls)
     forces       :      3.74s CPU      5.00s WALL (       1 calls)

     Called by init_run:
     wfcinit      :      5.65s CPU      8.93s WALL (       1 calls)
     wfcinit:atom :      0.15s CPU      0.15s WALL (      16 calls)
     wfcinit:wfcr :      4.58s CPU      4.81s WALL (      16 calls)
     potinit      :      0.11s CPU      0.17s WALL (       1 calls)
     hinit0       :      2.22s CPU      1.95s WALL (       1 calls)

     Called by electrons:
     c_bands      :    359.90s CPU    451.72s WALL (      24 calls)
     sum_band     :     51.08s CPU     81.41s WALL (      24 calls)
     v_of_rho     :      1.18s CPU      0.77s WALL (      25 calls)
     v_h          :      0.56s CPU      0.22s WALL (      25 calls)
     v_xc         :      0.64s CPU      0.57s WALL (      26 calls)
     mix_rho      :      4.29s CPU      9.46s WALL (      24 calls)

     Called by c_bands:
     init_us_2    :      4.27s CPU      4.81s WALL (     800 calls)
     cegterg      :    315.94s CPU    316.73s WALL (     384 calls)

     Called by sum_band:
     sum_band:wei :      0.34s CPU      0.35s WALL (      24 calls)
     sum_band:loo :     50.33s CPU     80.53s WALL (      24 calls)
     sum_band:buf :     18.06s CPU     48.32s WALL (     384 calls)
     sum_band:ini :      2.14s CPU      2.18s WALL (     384 calls)

     Called by *egterg:
     cdiaghg      :     40.28s CPU     40.77s WALL (    1847 calls)
                                       40.75s GPU  (    1847 calls)
     cegterg:over :     42.98s CPU     43.01s WALL (    1463 calls)
     cegterg:upda :     16.30s CPU     16.32s WALL (    1463 calls)
     cegterg:last :     19.95s CPU     19.93s WALL (     757 calls)
     h_psi        :    175.58s CPU    176.21s WALL (    1863 calls)
     g_psi        :      0.53s CPU      0.53s WALL (    1463 calls)

     Called by h_psi:
     h_psi:calbec :      0.14s CPU      0.17s WALL (    1863 calls)
     vloc_psi     :    139.87s CPU    139.83s WALL (    1863 calls)
                                      139.81s GPU  (    1863 calls)
     add_vuspsi   :     34.48s CPU     35.05s WALL (    1863 calls)

     General routines
     calbec       :      0.14s CPU      0.17s WALL (    1927 calls)
     fft          :      0.01s CPU      0.05s WALL (     490 calls)
                                        0.05s GPU  (     490 calls)
     ffts         :      0.01s CPU      0.06s WALL (     667 calls)
                                        0.06s GPU  (     667 calls)
     fftw         :      0.94s CPU    124.52s WALL (   77424 calls)
                                      123.53s GPU  (   77424 calls)
     davcio       :      1.56s CPU    128.34s WALL (    1686 calls)
 
     Parallel routines
 
     PWSCF        :   7m10.47s CPU   9m33.68s WALL

 
   This run was terminated on:  15:17: 7  29May2026            

=------------------------------------------------------------------------------=
   JOB DONE.
=------------------------------------------------------------------------------=
